 Gaussian 09, Revision D.01,
 Gaussian 09:  ES64L-G09RevD.01 24-Apr-2013

 -------------------------------
 # irc=calcfc rhf/6-311++g** gfp
 -------------------------------

 -------
 HNC-HCN
 -------
 Symbolic Z-matrix:
 Charge =  0 Multiplicity = 1

 SCF Done:  E(RHF) =  -92.8226940769     A.U. after   13 cycles
 SCF Done:  E(RHF) =  -92.8230069739     A.U. after   12 cycles
 SCF Done:  E(RHF) =  -92.8239309804     A.U. after   12 cycles
 SCF Done:  E(RHF) =  -92.8254241799     A.U. after   11 cycles
 SCF Done:  E(RHF) =  -92.8274117645     A.U. after   12 cycles
 SCF Done:  E(RHF) =  -92.8297908825     A.U. after   12 cycles
 SCF Done:  E(RHF) =  -92.8324344337     A.U. after   12 cycles
 SCF Done:  E(RHF) =  -92.8352031401     A.U. after   11 cycles
 SCF Done:  E(RHF) =  -92.8379665851     A.U. after   11 cycles
 SCF Done:  E(RHF) =  -92.8406286906     A.U. after   11 cycles
 SCF Done:  E(RHF) =  -92.8230084234     A.U. after   14 cycles
 SCF Done:  E(RHF) =  -92.8239419753     A.U. after   12 cycles
 SCF Done:  E(RHF) =  -92.8254702679     A.U. after   12 cycles
 SCF Done:  E(RHF) =  -92.8275491558     A.U. after   12 cycles
 SCF Done:  E(RHF) =  -92.8301254754     A.U. after   12 cycles
 SCF Done:  E(RHF) =  -92.8331383846     A.U. after   12 cycles
 SCF Done:  E(RHF) =  -92.8365225415     A.U. after   12 cycles
 SCF Done:  E(RHF) =  -92.8402103499     A.U. after   12 cycles
 SCF Done:  E(RHF) =  -92.8441339405     A.U. after   12 cycles
 SCF Done:  E(RHF) =  -92.8482269186     A.U. after   12 cycles

                          Input orientation:
 ---------------------------------------------------------------------
 Center     Atomic      Atomic             Coordinates (Angstroms)
 Number     Number       Type             X           Y           Z
 ---------------------------------------------------------------------
      1          7           0       -0.078691    0.000000   -0.561872
      2          6           0        0.004227    0.000000    0.580315
      3          1           0        1.043061    0.000000    0.899237
 ---------------------------------------------------------------------

 Alpha  occ. eigenvalues --  -15.62542 -11.28108  -1.27508  -0.76135  -0.60091
 Alpha  occ. eigenvalues --   -0.51962  -0.49765
 Alpha virt. eigenvalues --    0.04274   0.06091   0.09415   0.09456   0.12164
 Alpha virt. eigenvalues --    0.16877   0.17775   0.21291   0.24296   0.26907
 Alpha virt. eigenvalues --    0.28996   0.33937   0.53098   0.62539   0.71161

 Mulliken charges:
               1
     1  N   -0.114853
     2  C   -0.101167
     3  H    0.216020
 Sum of Mulliken charges =   0.00000

 Dipole moment (field-independent basis, Debye):
    X=              1.5871    Y=              0.0000    Z=              1.5925  Tot=              2.2483
 Quadrupole moment (field-independent basis, Debye-Ang):
   XX=            -10.1921   YY=            -12.0662   ZZ=            -12.5872
   XY=              0.0000   XZ=              1.1087   YZ=              0.0000

  Exact polarizability:   0.000   0.000   0.000   0.000   0.000   0.000
 Approx polarizability:  11.154   0.000   9.552  -0.350   0.000  23.674

 Normal termination of Gaussian 09 at Tue Sep 27 11:54:14 2016.
