 Gaussian 09, Revision D.01,
 Gaussian 09:  ES64L-G09RevD.01 24-Apr-2013

 ---------------------------------------------
 # opt=(modredundant,tight) RHF/6-311++g** gfp
 ---------------------------------------------

 -------
 HNC-HCN
 -------
 Symbolic Z-matrix:
 Charge =  0 Multiplicity = 1

 SCF Done:  E(RHF) =  -92.7520603033     A.U. after   10 cycles
 SCF Done:  E(RHF) =  -92.8414369808     A.U. after   11 cycles
 SCF Done:  E(RHF) =  -92.7594680640     A.U. after   11 cycles
 SCF Done:  E(RHF) =  -92.8841946945     A.U. after   10 cycles
 SCF Done:  E(RHF) =  -92.8845817501     A.U. after    9 cycles
 SCF Done:  E(RHF) =  -92.8846822217     A.U. after    9 cycles
 SCF Done:  E(RHF) =  -92.8846865135     A.U. after    7 cycles
 Optimization completed.
    -- Stationary point found.

                         Standard orientation:
 ---------------------------------------------------------------------
 Center     Atomic      Atomic             Coordinates (Angstroms)
 Number     Number       Type             X           Y           Z
 ---------------------------------------------------------------------
      1          7           0        0.000000    0.000000    0.422358
      2          6           0        0.000000    0.000000   -0.727340
      3          1           0        0.000000    0.000000    1.407537
 ---------------------------------------------------------------------

 The electronic state is 1-SG.
 Alpha  occ. eigenvalues --  -15.60452 -11.29309  -1.28022  -0.88590  -0.52919
 Alpha  occ. eigenvalues --   -0.52919  -0.48861
 Alpha virt. eigenvalues --    0.03763   0.10164   0.10973   0.10973   0.13809
 Alpha virt. eigenvalues --    0.16846   0.16846   0.21942   0.26526   0.26526
 Alpha virt. eigenvalues --    0.28667   0.36942   0.55412   0.65967   0.73965

 Mulliken charges:
               1
     1  N   -0.225426
     2  C   -0.093201
     3  H    0.318626
 Sum of Mulliken charges =   0.00000

 Dipole moment (field-independent basis, Debye):
    X=              0.0000    Y=              0.0000    Z=              2.9410  Tot=              2.9410
 Quadrupole moment (field-independent basis, Debye-Ang):
   XX=            -12.1226   YY=            -12.1226   ZZ=            -10.4015
   XY=              0.0000   XZ=              0.0000   YZ=              0.0000

 Normal termination of Gaussian 09 at Mon Sep 26 18:24:17 2016.
