 Gaussian 09, Revision D.01,
 Gaussian 09:  ES64L-G09RevD.01 24-Apr-2013

 ------------------------------------------
 # opt=(modredundant,tight) RHF/6-311g* gfp
 ------------------------------------------

 -------
 HNC-HCN
 -------
 Symbolic Z-matrix:
 Charge =  0 Multiplicity = 1

 SCF Done:  E(RHF) =  -92.7354223614     A.U. after   12 cycles
 SCF Done:  E(RHF) =  -92.8256582389     A.U. after   12 cycles
 SCF Done:  E(RHF) =  -92.8695335714     A.U. after   13 cycles
 SCF Done:  E(RHF) =  -92.8750074460     A.U. after   12 cycles
 SCF Done:  E(RHF) =  -92.8760807695     A.U. after   10 cycles
 SCF Done:  E(RHF) =  -92.8761124182     A.U. after    9 cycles
 SCF Done:  E(RHF) =  -92.8761129129     A.U. after    8 cycles
 SCF Done:  E(RHF) =  -92.8761129748     A.U. after    4 cycles
 Optimization completed.
    -- Stationary point found.
 SCF Done:  E(RHF) =  -92.8727043711     A.U. after   12 cycles
 SCF Done:  E(RHF) =  -92.8734128998     A.U. after   11 cycles
 Optimization completed.
 SCF Done:  E(RHF) =  -92.8908411120     A.U. after   11 cycles
 SCF Done:  E(RHF) =  -92.8910780089     A.U. after    9 cycles
 SCF Done:  E(RHF) =  -92.8910783947     A.U. after    7 cycles
 SCF Done:  E(RHF) =  -92.8910784014     A.U. after    5 cycles
 SCF Done:  E(RHF) =  -92.8934552637     A.U. after   11 cycles
 SCF Done:  E(RHF) =  -92.8936011783     A.U. after    9 cycles
 SCF Done:  E(RHF) =  -92.8936013320     A.U. after    7 cycles
    -- Stationary point found.
 SCF Done:  E(RHF) =  -92.8953597434     A.U. after   11 cycles
 SCF Done:  E(RHF) =  -92.8954365213     A.U. after    9 cycles
 SCF Done:  E(RHF) =  -92.8954365639     A.U. after    6 cycles
 Optimization completed.
    -- Stationary point found.

                         Standard orientation:
 ---------------------------------------------------------------------
 Center     Atomic      Atomic             Coordinates (Angstroms)
 Number     Number       Type             X           Y           Z
 ---------------------------------------------------------------------
      1          7           0        0.014429    0.637893    0.000000
      2          6           0        0.014429   -0.489433    0.000000
      3          1           0       -0.187575   -1.528653    0.000000
 ---------------------------------------------------------------------

 The electronic state is 1-A'.
 Alpha  occ. eigenvalues --  -15.58818 -11.28067  -1.25069  -0.80915  -0.57954
 Alpha  occ. eigenvalues --   -0.50339  -0.50295
 Alpha virt. eigenvalues --    0.14941   0.18758   0.19115   0.30480   0.57391
 Alpha virt. eigenvalues --    0.57397   0.59361   0.74542   0.81463   0.90603
 Alpha virt. eigenvalues --    0.90950   1.21615   1.35079   1.49522   1.49652

 Mulliken charges:
               1
     1  N   -0.295535
     2  C   -0.044502
     3  H    0.340036
 Sum of Mulliken charges =   0.00000

 Dipole moment (field-independent basis, Debye):
    X=             -0.2624    Y=             -3.1809    Z=              0.0000  Tot=              3.1917
 Quadrupole moment (field-independent basis, Debye-Ang):
   XX=            -11.6579   YY=             -9.7100   ZZ=            -11.7152
   XY=              0.3489   XZ=              0.0000   YZ=              0.0000

 Normal termination of Gaussian 09 at Mon Sep 26 18:31:56 2016.
