 Gaussian 09, Revision D.01,
 Gaussian 09:  ES64L-G09RevD.01 24-Apr-2013

 ----------------------------
 # irc=calcfc rhf/6-311g* gfp
 ----------------------------

 -------
 HNC-HCN
 -------
 Symbolic Z-matrix:
 Charge =  0 Multiplicity = 1

 SCF Done:  E(RHF) =  -92.8162574644     A.U. after   13 cycles
 SCF Done:  E(RHF) =  -92.8165742275     A.U. after   12 cycles
 SCF Done:  E(RHF) =  -92.8175061392     A.U. after   12 cycles
 SCF Done:  E(RHF) =  -92.8190040601     A.U. after   12 cycles
 SCF Done:  E(RHF) =  -92.8209838796     A.U. after   12 cycles
 SCF Done:  E(RHF) =  -92.8233317950     A.U. after   12 cycles
 SCF Done:  E(RHF) =  -92.8259105506     A.U. after   12 cycles
 SCF Done:  E(RHF) =  -92.8285763761     A.U. after   11 cycles
 SCF Done:  E(RHF) =  -92.8312055925     A.U. after   11 cycles
 SCF Done:  E(RHF) =  -92.8337209050     A.U. after   11 cycles
 SCF Done:  E(RHF) =  -92.8165771336     A.U. after   14 cycles
 SCF Done:  E(RHF) =  -92.8175286525     A.U. after   12 cycles
 SCF Done:  E(RHF) =  -92.8190892936     A.U. after   12 cycles
 SCF Done:  E(RHF) =  -92.8212149700     A.U. after   11 cycles
 SCF Done:  E(RHF) =  -92.8238507600     A.U. after   11 cycles
 SCF Done:  E(RHF) =  -92.8269325499     A.U. after   11 cycles
 SCF Done:  E(RHF) =  -92.8303908053     A.U. after   12 cycles
 SCF Done:  E(RHF) =  -92.8341535921     A.U. after   12 cycles
 SCF Done:  E(RHF) =  -92.8381492849     A.U. after   12 cycles
 SCF Done:  E(RHF) =  -92.8423087897     A.U. after   12 cycles

                          Input orientation:
 ---------------------------------------------------------------------
 Center     Atomic      Atomic             Coordinates (Angstroms)
 Number     Number       Type             X           Y           Z
 ---------------------------------------------------------------------
      1          7           0       -0.078659    0.000000   -0.561168
      2          6           0        0.003583    0.000000    0.581590
      3          1           0        1.050318    0.000000    0.874108
 ---------------------------------------------------------------------

 Alpha  occ. eigenvalues --  -15.62034 -11.27553  -1.27216  -0.75727  -0.59828
 Alpha  occ. eigenvalues --   -0.51675  -0.49419
 Alpha virt. eigenvalues --    0.08182   0.17853   0.18348   0.35619   0.53089
 Alpha virt. eigenvalues --    0.58171   0.59459   0.72007   0.80377   0.88426
 Alpha virt. eigenvalues --    0.88890   1.07677   1.29740   1.47141   1.60210

 Mulliken charges:
               1
     1  N   -0.179923
     2  C   -0.139100
     3  H    0.319024
 Sum of Mulliken charges =   0.00000

 Dipole moment (field-independent basis, Debye):
    X=              1.5713    Y=              0.0000    Z=              1.4748  Tot=              2.1550
 Quadrupole moment (field-independent basis, Debye-Ang):
   XX=            -10.0061   YY=            -11.9268   ZZ=            -12.5357
   XY=              0.0000   XZ=              1.1100   YZ=              0.0000

  Exact polarizability:   0.000   0.000   0.000   0.000   0.000   0.000
 Approx polarizability:  10.280   0.000   8.213  -0.286   0.000  22.583

 Normal termination of Gaussian 09 at Tue Sep 27 11:28:14 2016.
