 Gaussian 09, Revision D.01,
 Gaussian 09:  ES64L-G09RevD.01 24-Apr-2013

 ------------------------------------------
 # opt=(modredundant,tight) RHF/6-311g* gfp
 ------------------------------------------

 -------
 HNC-HCN
 -------
 Symbolic Z-matrix:
 Charge =  0 Multiplicity = 1

 SCF Done:  E(RHF) =  -92.7447660826     A.U. after   10 cycles
 SCF Done:  E(RHF) =  -92.8343284819     A.U. after   11 cycles
 SCF Done:  E(RHF) =  -92.7288050573     A.U. after   11 cycles
 SCF Done:  E(RHF) =  -92.8776086919     A.U. after   10 cycles
 SCF Done:  E(RHF) =  -92.8780505240     A.U. after    9 cycles
 SCF Done:  E(RHF) =  -92.8781474958     A.U. after    8 cycles
 SCF Done:  E(RHF) =  -92.8781570951     A.U. after    7 cycles
 SCF Done:  E(RHF) =  -92.8781571009     A.U. after    5 cycles
 Optimization completed.
    -- Stationary point found.

                         Standard orientation:
 ---------------------------------------------------------------------
 Center     Atomic      Atomic             Coordinates (Angstroms)
 Number     Number       Type             X           Y           Z
 ---------------------------------------------------------------------
      1          7           0        0.000000    0.000000    0.422393
      2          6           0        0.000000    0.000000   -0.726879
      3          1           0        0.000000    0.000000    1.404528
 ---------------------------------------------------------------------

 The electronic state is 1-SG.
 Alpha  occ. eigenvalues --  -15.59796 -11.28475  -1.27507  -0.88416  -0.52444
 Alpha  occ. eigenvalues --   -0.52444  -0.48324
 Alpha virt. eigenvalues --    0.14733   0.19533   0.19533   0.37623   0.50115
 Alpha virt. eigenvalues --    0.60714   0.60714   0.65475   0.85783   0.85783
 Alpha virt. eigenvalues --    0.99322   1.23861   1.33056   1.54077   1.54077

 Mulliken charges:
               1
     1  N   -0.543858
     2  C    0.133063
     3  H    0.410795
 Sum of Mulliken charges =   0.00000

 Dipole moment (field-independent basis, Debye):
    X=              0.0000    Y=              0.0000    Z=              2.9922  Tot=              2.9922
 Quadrupole moment (field-independent basis, Debye-Ang):
   XX=            -11.8961   YY=            -11.8961   ZZ=            -10.1404
   XY=              0.0000   XZ=              0.0000   YZ=              0.0000

 Normal termination of Gaussian 09 at Mon Sep 26 18:25:43 2016.
