 Gaussian 09, Revision D.01,
 Gaussian 09:  ES64L-G09RevD.01 24-Apr-2013

 ---------------------------------------
 # opt=(calcfc,ts,tight) RHF/6-311g* gfp
 ---------------------------------------

 -------
 HNC-HCN
 -------
 Symbolic Z-matrix:
 Charge =  0 Multiplicity = 1

 SCF Done:  E(RHF) =  -92.7304257756     A.U. after   13 cycles

  Exact polarizability:   0.000   0.000   0.000   0.000   0.000   0.000
 Approx polarizability:  11.320   0.333  14.811   0.000   0.000   8.696

 SCF Done:  E(RHF) =  -92.8060570677     A.U. after   13 cycles
 SCF Done:  E(RHF) =  -92.8147590049     A.U. after   12 cycles
 SCF Done:  E(RHF) =  -92.8162051180     A.U. after   11 cycles
 SCF Done:  E(RHF) =  -92.8162569779     A.U. after   10 cycles
 SCF Done:  E(RHF) =  -92.8162574600     A.U. after    9 cycles
 SCF Done:  E(RHF) =  -92.8162574644     A.U. after    7 cycles
 Optimization completed.
    -- Stationary point found.

                         Standard orientation:
 ---------------------------------------------------------------------
 Center     Atomic      Atomic             Coordinates (Angstroms)
 Number     Number       Type             X           Y           Z
 ---------------------------------------------------------------------
      1          7           0        0.080818   -0.563938    0.000000
      2          6           0        0.080818    0.600106    0.000000
      3          1           0       -1.050638    0.346926    0.000000
 ---------------------------------------------------------------------

 The electronic state is 1-A'.
 Alpha  occ. eigenvalues --  -15.64762 -11.28418  -1.31397  -0.71340  -0.62476
 Alpha  occ. eigenvalues --   -0.53632  -0.49469
 Alpha virt. eigenvalues --    0.09792   0.17350   0.17749   0.35189   0.45853
 Alpha virt. eigenvalues --    0.58366   0.59537   0.71398   0.76269   0.86425
 Alpha virt. eigenvalues --    0.86775   1.03558   1.27536   1.47462   1.60146

 Mulliken charges:
               1
     1  N   -0.162743
     2  C   -0.147452
     3  H    0.310195
 Sum of Mulliken charges =   0.00000

 Dipole moment (field-independent basis, Debye):
    X=             -1.4525    Y=              0.1707    Z=              0.0000  Tot=              1.4625
 Quadrupole moment (field-independent basis, Debye-Ang):
   XX=             -9.6713   YY=            -14.4338   ZZ=            -12.1763
   XY=             -0.6250   XZ=              0.0000   YZ=              0.0000

 Normal termination of Gaussian 09 at Tue Sep 27 11:15:38 2016.
