 Gaussian 09, Revision D.01,
 Gaussian 09:  ES64L-G09RevD.01 24-Apr-2013

 ------------------------------------------
 # opt=(modredundant,tight) RHF/6-311g* gfp
 ------------------------------------------

 -------
 HNC-HCN
 -------
 Symbolic Z-matrix:
 Charge =  0 Multiplicity = 1

 SCF Done:  E(RHF) =  -92.5965845431     A.U. after   12 cycles
 SCF Done:  E(RHF) =  -92.6617929645     A.U. after   11 cycles
 SCF Done:  E(RHF) =  -92.7408365696     A.U. after   12 cycles
 SCF Done:  E(RHF) =  -92.7919027551     A.U. after   12 cycles
 SCF Done:  E(RHF) =  -92.8739452828     A.U. after   11 cycles
 SCF Done:  E(RHF) =  -92.5954518852     A.U. after   10 cycles
 SCF Done:  E(RHF) =  -92.8653455313     A.U. after   10 cycles
 SCF Done:  E(RHF) =  -92.8825523383     A.U. after    9 cycles
 SCF Done:  E(RHF) =  -92.8960765143     A.U. after   10 cycles
 SCF Done:  E(RHF) =  -92.8969623487     A.U. after    9 cycles
 SCF Done:  E(RHF) =  -92.8969827481     A.U. after    8 cycles
 SCF Done:  E(RHF) =  -92.8969839902     A.U. after    7 cycles
 SCF Done:  E(RHF) =  -92.8969839940     A.U. after    6 cycles
 Optimization completed.
    -- Stationary point found.

                         Standard orientation:
 ---------------------------------------------------------------------
 Center     Atomic      Atomic             Coordinates (Angstroms)
 Number     Number       Type             X           Y           Z
 ---------------------------------------------------------------------
      1          7           0        0.000000    0.000000    0.638993
      2          6           0        0.000000    0.000000   -0.487811
      3          1           0        0.000000    0.000000   -1.546088
 ---------------------------------------------------------------------

 The electronic state is 1-SG.
 Alpha  occ. eigenvalues --  -15.58748 -11.28084  -1.25048  -0.81064  -0.57911
 Alpha  occ. eigenvalues --   -0.50326  -0.50326
 Alpha virt. eigenvalues --    0.15169   0.19136   0.19136   0.29919   0.57372
 Alpha virt. eigenvalues --    0.57372   0.59511   0.74767   0.81460   0.90652
 Alpha virt. eigenvalues --    0.90652   1.23349   1.37591   1.49665   1.49665

 Mulliken charges:
               1
     1  N   -0.304129
     2  C   -0.038153
     3  H    0.342281
 Sum of Mulliken charges =   0.00000

 Dipole moment (field-independent basis, Debye):
    X=              0.0000    Y=              0.0000    Z=             -3.2198  Tot=              3.2198
 Quadrupole moment (field-independent basis, Debye-Ang):
   XX=            -11.7099   YY=            -11.7099   ZZ=             -9.6320
   XY=              0.0000   XZ=              0.0000   YZ=              0.0000

 Normal termination of Gaussian 09 at Mon Sep 26 18:26:18 2016.
