 Gaussian 09, Revision D.01,
 Gaussian 09:  ES64L-G09RevD.01 24-Apr-2013

 --------------------------------------------
 # opt=(calcfc,ts,tight) b3lyp/6-311++g** gfp
 --------------------------------------------

 -------
 HNC-HCN
 -------
 Symbolic Z-matrix:
 Charge =  0 Multiplicity = 1

 SCF Done:  E(RB3LYP) =  -93.2831621510     A.U. after   10 cycles

  Exact polarizability:   0.000   0.000   0.000   0.000   0.000   0.000
 Approx polarizability:  19.474   1.661  26.596   0.000   0.000  15.050

 SCF Done:  E(RB3LYP) =  -93.3614254312     A.U. after   10 cycles
 SCF Done:  E(RB3LYP) =  -93.3755479665     A.U. after   10 cycles
 SCF Done:  E(RB3LYP) =  -93.3788934130     A.U. after   10 cycles
 SCF Done:  E(RB3LYP) =  -93.3777717321     A.U. after   10 cycles
 SCF Done:  E(RB3LYP) =  -93.3779786567     A.U. after    9 cycles
 SCF Done:  E(RB3LYP) =  -93.3780027911     A.U. after    9 cycles
 SCF Done:  E(RB3LYP) =  -93.3780384449     A.U. after    9 cycles
 SCF Done:  E(RB3LYP) =  -93.3780385690     A.U. after    7 cycles
 SCF Done:  E(RB3LYP) =  -93.3780385702     A.U. after    5 cycles
 Optimization completed.
    -- Stationary point found.

                         Standard orientation:
 ---------------------------------------------------------------------
 Center     Atomic      Atomic             Coordinates (Angstroms)
 Number     Number       Type             X           Y           Z
 ---------------------------------------------------------------------
      1          7           0        0.080904   -0.565243    0.000000
      2          6           0        0.080904    0.618864    0.000000
      3          1           0       -1.051750    0.243520    0.000000
 ---------------------------------------------------------------------

 The electronic state is 1-A'.
 Alpha  occ. eigenvalues --  -14.39461 -10.24438  -1.00333  -0.53612  -0.46484
 Alpha  occ. eigenvalues --   -0.39993  -0.35150
 Alpha virt. eigenvalues --   -0.07632  -0.01451  -0.00487   0.04483   0.05964
 Alpha virt. eigenvalues --    0.06726   0.08491   0.11496   0.14307   0.15970
 Alpha virt. eigenvalues --    0.16473   0.24941   0.35479   0.42568   0.52498

 Mulliken charges:
               1
     1  N   -0.031462
     2  C   -0.182767
     3  H    0.214230
 Sum of Mulliken charges =   0.00000

 Dipole moment (field-independent basis, Debye):
    X=             -1.3188    Y=              0.1260    Z=              0.0000  Tot=              1.3248
 Quadrupole moment (field-independent basis, Debye-Ang):
   XX=             -9.8297   YY=            -14.6969   ZZ=            -12.3691
   XY=             -0.2872   XZ=              0.0000   YZ=              0.0000

 Normal termination of Gaussian 09 at Fri Sep 30 11:44:27 2016.
