 Gaussian 09, Revision D.01,
 Gaussian 09:  ES64L-G09RevD.01 24-Apr-2013

 ----------------------------------------------
 # opt=(calcfc,ts,tight) mp2(fc)/6-311++g** gfp
 ----------------------------------------------

 -------
 HNC-HCN
 -------
 Symbolic Z-matrix:
 Charge =  0 Multiplicity = 1

 SCF Done:  E(RHF) =  -92.7363917912     A.U. after   12 cycles
 E2 =    -0.2773470753D+00 EUMP2 =    -0.93013738866531D+02
 E2 =    -0.2773470753D+00 EUMP2 =    -0.93013738866531D+02

  Exact polarizability:  13.847   0.506  17.352   0.000   0.000  11.622
 Approx polarizability:  12.143   0.384  15.541   0.000   0.000   9.862

 SCF Done:  E(RHF) =  -92.8172335298     A.U. after   14 cycles
 E2 =    -0.2863110715D+00 EUMP2 =    -0.93103544601374D+02
 SCF Done:  E(RHF) =  -92.8224171978     A.U. after   12 cycles
 E2 =    -0.2938088683D+00 EUMP2 =    -0.93116226066130D+02
 SCF Done:  E(RHF) =  -92.8277242935     A.U. after   11 cycles
 E2 =    -0.2925749854D+00 EUMP2 =    -0.93120299278973D+02
 SCF Done:  E(RHF) =  -92.8223154468     A.U. after   12 cycles
 E2 =    -0.2965796586D+00 EUMP2 =    -0.93118895105385D+02
 SCF Done:  E(RHF) =  -92.8219354871     A.U. after   11 cycles
 E2 =    -0.2970658643D+00 EUMP2 =    -0.93119001351392D+02
 SCF Done:  E(RHF) =  -92.8218533316     A.U. after   10 cycles
 E2 =    -0.2971627544D+00 EUMP2 =    -0.93119016086000D+02
 SCF Done:  E(RHF) =  -92.8218761104     A.U. after    8 cycles
 E2 =    -0.2971401355D+00 EUMP2 =    -0.93119016245908D+02
 SCF Done:  E(RHF) =  -92.8218784440     A.U. after    7 cycles
 E2 =    -0.2971378052D+00 EUMP2 =    -0.93119016249197D+02
 Optimization completed.
    -- Stationary point found.

                         Standard orientation:
 ---------------------------------------------------------------------
 Center     Atomic      Atomic             Coordinates (Angstroms)
 Number     Number       Type             X           Y           Z
 ---------------------------------------------------------------------
      1          7           0        0.080680   -0.573131    0.000000
      2          6           0        0.080680    0.618700    0.000000
      3          1           0       -1.048834    0.299716    0.000000
 ---------------------------------------------------------------------

 The electronic state is 1-A'.
 Alpha  occ. eigenvalues --  -15.66022 -11.30089  -1.30777  -0.71385  -0.62542
 Alpha  occ. eigenvalues --   -0.53303  -0.49801
 Alpha virt. eigenvalues --    0.04427   0.08563   0.09476   0.09614   0.12289
 Alpha virt. eigenvalues --    0.16526   0.16866   0.19852   0.22501   0.25494
 Alpha virt. eigenvalues --    0.26248   0.33985   0.49562   0.57293   0.71569

 Mulliken charges:
               1
     1  N   -0.019924
     2  C   -0.195127
     3  H    0.215052
 Sum of Mulliken charges =   0.00000

 Dipole moment (field-independent basis, Debye):
    X=             -1.4055    Y=              0.1353    Z=              0.0000  Tot=              1.4120
 Quadrupole moment (field-independent basis, Debye-Ang):
   XX=             -9.8661   YY=            -14.7521   ZZ=            -12.4230
   XY=             -0.5815   XZ=              0.0000   YZ=              0.0000

 Normal termination of Gaussian 09 at Fri Sep 30 11:45:10 2016.
