 Gaussian 09, Revision D.01,
 Gaussian 09:  ES64L-G09RevD.01 24-Apr-2013

 ---------------------------------------------
 # opt=(modredundant,tight) RHF/6-311++g** gfp
 ---------------------------------------------

 -------
 HNC-HCN
 -------
 Symbolic Z-matrix:
 Charge =  0 Multiplicity = 1

 SCF Done:  E(RHF) =  -92.7425010978     A.U. after   12 cycles
 SCF Done:  E(RHF) =  -92.8325850919     A.U. after   12 cycles
 SCF Done:  E(RHF) =  -92.8769456487     A.U. after   13 cycles
 SCF Done:  E(RHF) =  -92.8815078752     A.U. after   12 cycles
 SCF Done:  E(RHF) =  -92.8824384625     A.U. after   11 cycles
 SCF Done:  E(RHF) =  -92.8824627621     A.U. after    9 cycles
 SCF Done:  E(RHF) =  -92.8824635645     A.U. after    8 cycles
 SCF Done:  E(RHF) =  -92.8824636391     A.U. after    4 cycles
 Optimization completed.
    -- Stationary point found.
 SCF Done:  E(RHF) =  -92.8789399288     A.U. after   12 cycles
 SCF Done:  E(RHF) =  -92.8796369458     A.U. after   11 cycles
 Optimization completed.
 SCF Done:  E(RHF) =  -92.8952397108     A.U. after   12 cycles
 SCF Done:  E(RHF) =  -92.8954676992     A.U. after   10 cycles
 SCF Done:  E(RHF) =  -92.8954680773     A.U. after    7 cycles
 SCF Done:  E(RHF) =  -92.8954680842     A.U. after    4 cycles
 SCF Done:  E(RHF) =  -92.8978985104     A.U. after   11 cycles
 SCF Done:  E(RHF) =  -92.8980378874     A.U. after    9 cycles
 SCF Done:  E(RHF) =  -92.8980380370     A.U. after    7 cycles
    -- Stationary point found.
 SCF Done:  E(RHF) =  -92.8998293592     A.U. after   11 cycles
 SCF Done:  E(RHF) =  -92.8999022193     A.U. after    9 cycles
 SCF Done:  E(RHF) =  -92.8999022603     A.U. after    6 cycles
 Optimization completed.
    -- Stationary point found.

                         Standard orientation:
 ---------------------------------------------------------------------
 Center     Atomic      Atomic             Coordinates (Angstroms)
 Number     Number       Type             X           Y           Z
 ---------------------------------------------------------------------
      1          7           0        0.014432    0.638068    0.000000
      2          6           0        0.014432   -0.489579    0.000000
      3          1           0       -0.187612   -1.529003    0.000000
 ---------------------------------------------------------------------

 The electronic state is 1-A'.
 Alpha  occ. eigenvalues --  -15.59410 -11.28475  -1.25413  -0.81130  -0.58257
 Alpha  occ. eigenvalues --   -0.50652  -0.50607
 Alpha virt. eigenvalues --    0.03627   0.08659   0.09103   0.09124   0.16265
 Alpha virt. eigenvalues --    0.17957   0.18023   0.21235   0.27831   0.28026
 Alpha virt. eigenvalues --    0.29200   0.34025   0.53714   0.70383   0.70395

 Mulliken charges:
               1
     1  N   -0.239946
     2  C    0.030613
     3  H    0.209333
 Sum of Mulliken charges =   0.00000

 Dipole moment (field-independent basis, Debye):
    X=             -0.2679    Y=             -3.2377    Z=              0.0000  Tot=              3.2487
 Quadrupole moment (field-independent basis, Debye-Ang):
   XX=            -11.7956   YY=             -9.8554   ZZ=            -11.8514
   XY=              0.3387   XZ=              0.0000   YZ=              0.0000

 Normal termination of Gaussian 09 at Mon Sep 26 18:31:19 2016.
