 Gaussian 09, Revision D.01,
 Gaussian 09:  ES64L-G09RevD.01 24-Apr-2013

 ---------------------------------------------
 # opt=(modredundant,tight) RHF/6-311++g** gfp
 ---------------------------------------------

 -------
 HNC-HCN
 -------
 Symbolic Z-matrix:
 Charge =  0 Multiplicity = 1

 SCF Done:  E(RHF) =  -92.5997484607     A.U. after   12 cycles
 SCF Done:  E(RHF) =  -92.6651966306     A.U. after   11 cycles
 SCF Done:  E(RHF) =  -92.7448902590     A.U. after   12 cycles
 SCF Done:  E(RHF) =  -92.7966068926     A.U. after   12 cycles
 SCF Done:  E(RHF) =  -92.8801427752     A.U. after   11 cycles
 SCF Done:  E(RHF) =  -92.6152101346     A.U. after   10 cycles
 SCF Done:  E(RHF) =  -92.8681850459     A.U. after   10 cycles
 SCF Done:  E(RHF) =  -92.8866965947     A.U. after    9 cycles
 SCF Done:  E(RHF) =  -92.9005526402     A.U. after   10 cycles
 SCF Done:  E(RHF) =  -92.9014453464     A.U. after    9 cycles
 SCF Done:  E(RHF) =  -92.9014668517     A.U. after    8 cycles
 SCF Done:  E(RHF) =  -92.9014695364     A.U. after    8 cycles
 SCF Done:  E(RHF) =  -92.9014695414     A.U. after    6 cycles
 Optimization completed.
    -- Stationary point found.

                         Standard orientation:
 ---------------------------------------------------------------------
 Center     Atomic      Atomic             Coordinates (Angstroms)
 Number     Number       Type             X           Y           Z
 ---------------------------------------------------------------------
      1          7           0        0.000000    0.000000    0.639135
      2          6           0        0.000000    0.000000   -0.487951
      3          1           0        0.000000    0.000000   -1.546238
 ---------------------------------------------------------------------

 The electronic state is 1-SG.
 Alpha  occ. eigenvalues --  -15.59337 -11.28479  -1.25391  -0.81280  -0.58212
 Alpha  occ. eigenvalues --   -0.50638  -0.50638
 Alpha virt. eigenvalues --    0.03607   0.08746   0.09094   0.09094   0.16774
 Alpha virt. eigenvalues --    0.18030   0.18030   0.20978   0.28055   0.28055
 Alpha virt. eigenvalues --    0.28715   0.33975   0.53997   0.70374   0.70374

 Mulliken charges:
               1
     1  N   -0.262582
     2  C    0.053222
     3  H    0.209360
 Sum of Mulliken charges =   0.00000

 Dipole moment (field-independent basis, Debye):
    X=              0.0000    Y=              0.0000    Z=             -3.2745  Tot=              3.2745
 Quadrupole moment (field-independent basis, Debye-Ang):
   XX=            -11.8439   YY=            -11.8439   ZZ=             -9.7809
   XY=              0.0000   XZ=              0.0000   YZ=              0.0000

 Normal termination of Gaussian 09 at Mon Sep 26 18:24:51 2016.
