 Gaussian 09, Revision D.01,
 Gaussian 09:  ES64L-G09RevD.01 24-Apr-2013

 ------------------------------------------
 # opt=(calcfc,ts,tight) RHF/6-311++g** gfp
 ------------------------------------------

 -------
 HNC-HCN
 -------
 Symbolic Z-matrix:
 Charge =  0 Multiplicity = 1

 SCF Done:  E(RHF) =  -92.7363917912     A.U. after   12 cycles

  Exact polarizability:   0.000   0.000   0.000   0.000   0.000   0.000
 Approx polarizability:  12.143   0.384  15.541   0.000   0.000   9.862

 SCF Done:  E(RHF) =  -92.8125092188     A.U. after   13 cycles
 SCF Done:  E(RHF) =  -92.8212028621     A.U. after   12 cycles
 SCF Done:  E(RHF) =  -92.8226426083     A.U. after   11 cycles
 SCF Done:  E(RHF) =  -92.8226936106     A.U. after   11 cycles
 SCF Done:  E(RHF) =  -92.8226940727     A.U. after    8 cycles
 SCF Done:  E(RHF) =  -92.8226940769     A.U. after    7 cycles
 Optimization completed.
    -- Stationary point found.

                         Standard orientation:
 ---------------------------------------------------------------------
 Center     Atomic      Atomic             Coordinates (Angstroms)
 Number     Number       Type             X           Y           Z
 ---------------------------------------------------------------------
      1          7           0        0.080963   -0.565838    0.000000
      2          6           0        0.080963    0.598105    0.000000
      3          1           0       -1.052524    0.372232    0.000000
 ---------------------------------------------------------------------

 The electronic state is 1-A'.
 Alpha  occ. eigenvalues --  -15.65260 -11.28896  -1.31431  -0.71755  -0.62580
 Alpha  occ. eigenvalues --   -0.53844  -0.49741
 Alpha virt. eigenvalues --    0.04386   0.08287   0.09467   0.09733   0.12346
 Alpha virt. eigenvalues --    0.16381   0.17382   0.20127   0.22479   0.25985
 Alpha virt. eigenvalues --    0.27013   0.34008   0.50011   0.57711   0.71594

 Mulliken charges:
               1
     1  N   -0.019458
     2  C   -0.203040
     3  H    0.222498
 Sum of Mulliken charges =   0.00000

 Dipole moment (field-independent basis, Debye):
    X=             -1.4694    Y=              0.2412    Z=              0.0000  Tot=              1.4890
 Quadrupole moment (field-independent basis, Debye-Ang):
   XX=             -9.8160   YY=            -14.5203   ZZ=            -12.3206
   XY=             -0.6820   XZ=              0.0000   YZ=              0.0000

 1\1\GINC-TC-NODE166\FTS\RHF\6-311++G(d,p)\C1H1N1\MAXB2\27-Sep-2016\0\\
 # opt=(calcfc,ts,tight) RHF/6-311++g** gfp\\HNC-HCN\\0,1\N,-0.03124981
 28,0.,-0.0912886291\C,-0.013308482,0.,1.0725162554\H,1.1165625714,0.,0
 .8291981176\\Version=ES64L-G09RevD.01\State=1-A'\HF=-92.8226941\RMSD=5
 .866e-09\RMSF=4.074e-06\Dipole=0.5794875,0.,0.0859692\Quadrupole=1.801
 3461,-0.0755553,-1.7257908,0.,0.4529069,0.\PG=CS [SG(C1H1N1)]\\@

 Normal termination of Gaussian 09 at Tue Sep 27 11:51:10 2016.
