 Gaussian 09, Revision D.01,
 Gaussian 09:  ES64L-G09RevD.01 24-Apr-2013

 --------------------------
 # cbs-4m geom=connectivity
 --------------------------

 -------------------
 Title Card Required
 -------------------
 Symbolic Z-matrix:
 Charge =  0 Multiplicity = 2

 SCF Done:  E(UHF) =  -39.3313402030     A.U. after   11 cycles
 SCF Done:  E(UHF) =  -39.3403738507     A.U. after   12 cycles
 SCF Done:  E(UHF) =  -39.3422726403     A.U. after   12 cycles
 SCF Done:  E(UHF) =  -39.3424807879     A.U. after   11 cycles
 SCF Done:  E(UHF) =  -39.3426089705     A.U. after   10 cycles
 SCF Done:  E(UHF) =  -39.3426099262     A.U. after    9 cycles
 Optimization completed.
    -- Stationary point found.
 Normal termination of Gaussian 09 at Fri Oct 21 11:37:24 2016.

 -------------------------------------------------------
 #N Geom=AllCheck Guess=TCheck SCRF=Check HF/3-21G* Freq
 -------------------------------------------------------

 Structure from the checkpoint file:  "h3c+-cbs4m.chk"
 -------------------
 Title Card Required
 -------------------
 Charge =  0 Multiplicity = 2

 SCF Done:  E(UHF) =  -39.3426099262     A.U. after    1 cycles

  Exact polarizability:  10.935   0.000  10.935   0.000   0.000   3.605
 Approx polarizability:   8.405   0.000   8.405   0.000   0.000   2.610

                      1                      2                      3
                     A1                     ?A                     ?A
 Frequencies --    424.0114              1543.7576              1543.7576
 Red. masses --      1.2356                 1.1030                 1.1030
 Frc consts  --      0.1309                 1.5488                 1.5488
 IR Inten    --     96.8589                 1.6861                 1.6861
 Raman Activ --      0.0000                 4.9218                 4.9218

                      4                      5                      6
                     ?B                     ?A                     ?A
 Frequencies --   3250.9751              3428.0861              3428.0861
 Red. masses --      1.0078                 1.1174                 1.1174
 Frc consts  --      6.2757                 7.7366                 7.7366
 IR Inten    --      0.0000                10.4156                10.4156
 Raman Activ --    107.2849                33.3360                33.3360

 - Thermochemistry -
 -------------------
 Temperature   298.150 Kelvin.  Pressure   1.00000 Atm.
 Atom     1 has atomic number  6 and mass  12.00000

 Molecular mass:    15.02348 amu.
 Principal axes and moments of inertia in atomic units:
                           1         2         3
     Eigenvalues --     6.20047   6.20047  12.40094
           X           -0.55984   0.82860   0.00000
           Y            0.82860   0.55984   0.00000
           Z            0.00000   0.00000   1.00000
 This molecule is an oblate symmetric top.
 Rotational symmetry number  3.
 Rotational temperatures (Kelvin)     13.96891    13.96891     6.98445
 Rotational constants (GHZ):         291.06511   291.06511   145.53258
 Zero-point vibrational energy      81457.8 (Joules/Mol)
                                   19.46887 (Kcal/Mol)
 Warning -- explicit consideration of   1 degrees of freedom as
           vibrations may cause significant error
 Vibrational temperatures:    610.06  2221.12  2221.12  4677.42  4932.25
          (Kelvin)           4932.25

 Zero-point correction=                           0.031026 (Hartree/Particle)
 Thermal correction to Energy=                    0.034153
 Thermal correction to Enthalpy=                  0.035097
 Thermal correction to Gibbs Free Energy=         0.012248
 Sum of electronic and zero-point Energies=            -39.311584
 Sum of electronic and thermal Energies=               -39.308457
 Sum of electronic and thermal Enthalpies=             -39.307513
 Sum of electronic and thermal Free Energies=          -39.330362

                     E (Thermal)             CV                S
                      KCal/Mol        Cal/Mol-Kelvin    Cal/Mol-Kelvin
 Total                   21.431              7.508             48.091
 Electronic               0.000              0.000              1.377
 Translational            0.889              2.981             34.068
 Rotational               0.889              2.981             11.747
 Vibrational             19.654              1.547              0.898
 Vibration     1          0.786              1.418              0.878

 Optimization completed.
    -- Stationary point found.
 Normal termination of Gaussian 09 at Fri Oct 21 11:37:26 2016.

 -----------------------------------------------------
 #N Geom=AllCheck Guess=TCheck SCRF=Check MP4SDQ/6-31G
 -----------------------------------------------------

 Structure from the checkpoint file:  "h3c+-cbs4m.chk"
 -------------------
 Title Card Required
 -------------------
 Charge =  0 Multiplicity = 2

 SCF Done:  E(UHF) =  -39.5466636205     A.U. after   10 cycles
 E2 =    -0.7513483403D-01 EUMP2 =    -0.39621798454577D+02
 Normal termination of Gaussian 09 at Fri Oct 21 11:37:28 2016.

 ----------------------------------------------------------------------
 #N Geom=AllCheck Guess=TCheck SCRF=Check MP2/6-31+D** CBSExtrap=(NMin=
 5,MinPop)
 ----------------------------------------------------------------------

 Structure from the checkpoint file:  "h3c+-cbs4m.chk"
 -------------------
 Title Card Required
 -------------------
 Charge =  0 Multiplicity = 2

 SCF Done:  E(UHF) =  -39.5657327252     A.U. after   11 cycles
 E2 =    -0.1312500222D+00 EUMP2 =    -0.39696982747335D+02
 E2(CBS)=      -0.166516 CBS-Int=       0.010360 OIii=       1.806177
 Normal termination of Gaussian 09 at Fri Oct 21 11:37:30 2016.

 -----------------------------------------------------------
 #N Geom=AllCheck Guess=TCheck SCRF=Check HF/CBSB1 SCF=Tight
 -----------------------------------------------------------

 Structure from the checkpoint file:  "h3c+-cbs4m.chk"
 -------------------
 Title Card Required
 -------------------
 Charge =  0 Multiplicity = 2

                         Standard orientation:
 ---------------------------------------------------------------------
 Center     Atomic      Atomic             Coordinates (Angstroms)
 Number     Number       Type             X           Y           Z
 ---------------------------------------------------------------------
      1          6           0        0.000000    0.000000   -0.000127
      2          1           0        0.000000    1.071705    0.000255
      3          1           0       -0.928124   -0.535853    0.000255
      4          1           0        0.928124   -0.535853    0.000255
 ---------------------------------------------------------------------

 SCF Done:  E(UHF) =  -39.5737848273     A.U. after    9 cycles

 Unable to determine electronic state:  an orbital has unidentified symmetry.
 Alpha  occ. eigenvalues --  -11.23233  -0.95123  -0.58398  -0.58398  -0.38469
 Alpha virt. eigenvalues --    0.04573   0.07651   0.07651   0.12739   0.17147
 Alpha virt. eigenvalues --    0.17147   0.20577   0.32542   0.35419   0.35419
 Alpha virt. eigenvalues --    0.70337   0.71126   0.71126   0.78220   0.78220

  Beta  occ. eigenvalues --  -11.20919  -0.86111  -0.56971  -0.56971
  Beta virt. eigenvalues --    0.04783   0.07100   0.07718   0.07718   0.17238
  Beta virt. eigenvalues --    0.17238   0.21449   0.21689   0.35644   0.36044
  Beta virt. eigenvalues --    0.36044   0.71926   0.71926   0.81736   0.84563

 Mulliken charges and spin densities:
               1          2
     1  C   -0.377463   1.210189
     2  H    0.125821  -0.070063
     3  H    0.125821  -0.070063
     4  H    0.125821  -0.070063
 Sum of Mulliken charges =   0.00000   1.00000

 Dipole moment (field-independent basis, Debye):
    X=              0.0000    Y=              0.0000    Z=              0.0008  Tot=              0.0008
 Quadrupole moment (field-independent basis, Debye-Ang):
   XX=             -7.2337   YY=             -7.2337   ZZ=             -9.0820
   XY=              0.0000   XZ=              0.0000   YZ=              0.0000

 Normal termination of Gaussian 09 at Fri Oct 21 11:37:32 2016.
