 Gaussian 09, Revision D.01,
 Gaussian 09:  ES64L-G09RevD.01 24-Apr-2013

 -----------------------------------------------------
 # opt freq=raman mp2(full)/6-311G** geom=connectivity
 -----------------------------------------------------

 -------------------
 Title Card Required
 -------------------
 Symbolic Z-matrix:
 Charge =  0 Multiplicity = 2

 SCF Done:  E(UHF) =  -39.5621542639     A.U. after   12 cycles
 E2 =    -0.1525279772D+00 EUMP2 =    -0.39714682241117D+02
 SCF Done:  E(UHF) =  -39.5705606912     A.U. after   12 cycles
 E2 =    -0.1527295982D+00 EUMP2 =    -0.39723290289397D+02
 SCF Done:  E(UHF) =  -39.5724502282     A.U. after   12 cycles
 E2 =    -0.1527806345D+00 EUMP2 =    -0.39725230862685D+02
 SCF Done:  E(UHF) =  -39.5726916913     A.U. after   13 cycles
 E2 =    -0.1526919653D+00 EUMP2 =    -0.39725383656515D+02
 SCF Done:  E(UHF) =  -39.5728347732     A.U. after   11 cycles
 E2 =    -0.1528360838D+00 EUMP2 =    -0.39725670856947D+02
 SCF Done:  E(UHF) =  -39.5728510481     A.U. after    9 cycles
 E2 =    -0.1528215452D+00 EUMP2 =    -0.39725672593310D+02
 Optimization completed.
    -- Stationary point found.
 Normal termination of Gaussian 09 at Fri Oct 21 11:17:33 2016.

 ----------------------------------------------------------------------
 #N Geom=AllCheck Guess=TCheck SCRF=Check GenChk UMP2-Full/6-311G(d,p)
 Freq
 ----------------------------------------------------------------------

 Structure from the checkpoint file:  "h3c+-gasopt.chk"
 -------------------
 Title Card Required
 -------------------
 Charge =  0 Multiplicity = 2

                         Standard orientation:
 ---------------------------------------------------------------------
 Center     Atomic      Atomic             Coordinates (Angstroms)
 Number     Number       Type             X           Y           Z
 ---------------------------------------------------------------------
      1          6           0        0.000000    0.000000   -0.000256
      2          1           0        0.000000    1.078891    0.000511
      3          1           0       -0.934347   -0.539445    0.000511
      4          1           0        0.934347   -0.539445    0.000511
 ---------------------------------------------------------------------

 SCF Done:  E(UHF) =  -39.5728510481     A.U. after    1 cycles
 E2 =    -0.1528215458D+00 EUMP2 =    -0.39725672593892D+02
 E2 =    -0.1528215458D+00 EUMP2 =    -0.39725672593892D+02
 SCF Done:  E(UHF) =  -39.5728517346     A.U. after    7 cycles
 E2 =    -0.1528215479D+00 EUMP2 =    -0.39725673282489D+02
 E2 =    -0.1528215479D+00 EUMP2 =    -0.39725673282489D+02
 SCF Done:  E(UHF) =  -39.5728517348     A.U. after    7 cycles
 E2 =    -0.1528215479D+00 EUMP2 =    -0.39725673282644D+02
 E2 =    -0.1528215479D+00 EUMP2 =    -0.39725673282644D+02
 SCF Done:  E(UHF) =  -39.5728517345     A.U. after    8 cycles
 E2 =    -0.1528215478D+00 EUMP2 =    -0.39725673282304D+02
 E2 =    -0.1528215478D+00 EUMP2 =    -0.39725673282304D+02
 SCF Done:  E(UHF) =  -39.5728512649     A.U. after    7 cycles
 E2 =    -0.1528215490D+00 EUMP2 =    -0.39725672813919D+02
 E2 =    -0.1528215490D+00 EUMP2 =    -0.39725672813919D+02
 SCF Done:  E(UHF) =  -39.5728516934     A.U. after    7 cycles
 E2 =    -0.1528215590D+00 EUMP2 =    -0.39725673252417D+02
 E2 =    -0.1528215590D+00 EUMP2 =    -0.39725673252417D+02

 Alpha  occ. eigenvalues --  -11.23153  -0.94654  -0.57917  -0.57917  -0.38444
 Alpha virt. eigenvalues --    0.16281   0.22909   0.22909   0.44948   0.44948
 Alpha virt. eigenvalues --    0.51286   0.57636   0.81286   0.81286   0.88175
 Alpha virt. eigenvalues --    1.27399   1.27399   1.64095   1.64095   1.66323

  Beta  occ. eigenvalues --  -11.20774  -0.85423  -0.56421  -0.56421
  Beta virt. eigenvalues --    0.13571   0.17497   0.23423   0.23423   0.45344
  Beta virt. eigenvalues --    0.45344   0.55880   0.71166   0.82991   0.82991
  Beta virt. eigenvalues --    0.91829   1.33526   1.33526   1.64681   1.64681

 Mulliken charges and spin densities:
               1          2
     1  C   -0.366265   1.181797
     2  H    0.122088  -0.060599
     3  H    0.122088  -0.060599
     4  H    0.122088  -0.060599
 Sum of Mulliken charges =   0.00000   1.00000

 Dipole moment (field-independent basis, Debye):
    X=              0.0000    Y=              0.0000    Z=              0.0083  Tot=              0.0083
 Quadrupole moment (field-independent basis, Debye-Ang):
   XX=             -7.2035   YY=             -7.2035   ZZ=             -8.9101
   XY=              0.0000   XZ=              0.0000   YZ=              0.0000

  Exact polarizability:  12.376   0.000  12.376   0.000   0.000   7.882
 Approx polarizability:   9.779   0.000   9.779   0.000   0.000   6.292

                      1                      2                      3
                     A1                     ?A                     ?A
 Frequencies --    424.6829              1446.7257              1446.7257
 Red. masses --      1.2356                 1.1021                 1.1021
 Frc consts  --      0.1313                 1.3590                 1.3590
 IR Inten    --     82.7431                 3.0237                 3.0237
 Raman Activ --      0.0000                 2.0329                 2.0329

                      4                      5                      6
                     ?B                     ?A                     ?A
 Frequencies --   3178.8007              3371.6871              3371.6871
 Red. masses --      1.0078                 1.1184                 1.1184
 Frc consts  --      6.0001                 7.4908                 7.4908
 IR Inten    --      0.0000                 4.1268                 4.1268
 Raman Activ --    121.9063                32.0151                32.0152

 - Thermochemistry -
 -------------------
 Temperature   298.150 Kelvin.  Pressure   1.00000 Atm.
 Atom     1 has atomic number  6 and mass  12.00000

 Molecular mass:    15.02348 amu.
 Principal axes and moments of inertia in atomic units:
                           1         2         3
     Eigenvalues --     6.28390   6.28390  12.56780
           X            0.32377   0.94613   0.00000
           Y            0.94613  -0.32377   0.00000
           Z            0.00000   0.00000   1.00000
 This molecule is an oblate symmetric top.
 Rotational symmetry number  3.
 Rotational temperatures (Kelvin)     13.78344    13.78344     6.89172
 Rotational constants (GHZ):         287.20059   287.20059   143.60041
 Zero-point vibrational energy      79194.6 (Joules/Mol)
                                   18.92797 (Kcal/Mol)
 Warning -- explicit consideration of   1 degrees of freedom as
           vibrations may cause significant error
 Vibrational temperatures:    611.02  2081.51  2081.51  4573.58  4851.10
          (Kelvin)           4851.10

 Zero-point correction=                           0.030164 (Hartree/Particle)
 Thermal correction to Energy=                    0.033295
 Thermal correction to Enthalpy=                  0.034239
 Thermal correction to Gibbs Free Energy=         0.011367
 Sum of electronic and zero-point Energies=            -39.695509
 Sum of electronic and thermal Energies=               -39.692378
 Sum of electronic and thermal Enthalpies=             -39.691434
 Sum of electronic and thermal Free Energies=          -39.714306

                     E (Thermal)             CV                S
                      KCal/Mol        Cal/Mol-Kelvin    Cal/Mol-Kelvin
 Total                   20.893              7.559             48.138
 Electronic               0.000              0.000              1.377
 Translational            0.889              2.981             34.068
 Rotational               0.889              2.981             11.787
 Vibrational             19.115              1.597              0.906
 Vibration     1          0.787              1.417              0.876

 Optimization completed.
    -- Stationary point found.
 Normal termination of Gaussian 09 at Fri Oct 21 11:18:07 2016.
