 Gaussian 09, Revision D.01,
 Gaussian 09:  ES64L-G09RevD.01 24-Apr-2013

 --------
 # cbs-4m
 --------

 -------------------
 Title Card Required
 -------------------
 Symbolic Z-matrix:
 Charge =  0 Multiplicity = 1

 SCF Done:  E(RHF) =  -108.300688380     A.U. after    8 cycles
 SCF Done:  E(RHF) =  -108.300952724     A.U. after    6 cycles
 SCF Done:  E(RHF) =  -108.300953559     A.U. after    6 cycles
 Optimization completed.
    -- Stationary point found.
 Normal termination of Gaussian 09 at Fri Oct 21 11:37:29 2016.

 -------------------------------------------------------
 #N Geom=AllCheck Guess=TCheck SCRF=Check HF/3-21G* Freq
 -------------------------------------------------------

 Structure from the checkpoint file:  "n2-cbs4m.chk"
 -------------------
 Title Card Required
 -------------------
 Charge =  0 Multiplicity = 1

 SCF Done:  E(RHF) =  -108.300953559     A.U. after    1 cycles

  Exact polarizability:   3.997   0.000   3.997   0.000   0.000  12.206
 Approx polarizability:   3.187   0.000   3.187   0.000   0.000  15.920

                      1
                     SGG
 Frequencies --   2612.5472
 Red. masses --     14.0031
 Frc consts  --     56.3121
 IR Inten    --      0.0000
 Raman Activ --     12.5408

 - Thermochemistry -
 -------------------
 Temperature   298.150 Kelvin.  Pressure   1.00000 Atm.
 Atom     1 has atomic number  7 and mass  14.00307

 Molecular mass:    28.00615 amu.
 Principal axes and moments of inertia in atomic units:
                           1         2         3
     Eigenvalues --     0.00000  29.31673  29.31673
           X            0.00000   1.00000   0.00000
           Y            0.00000   0.00000   1.00000
           Z            1.00000   0.00000   0.00000
 This molecule is a prolate symmetric top.
 Rotational symmetry number  2.
 Rotational temperature (Kelvin)      2.95442
 Rotational constant (GHZ):          61.560117
 Zero-point vibrational energy      15626.5 (Joules/Mol)
                                    3.73482 (Kcal/Mol)
 Vibrational temperatures:   3758.87
          (Kelvin)

 Zero-point correction=                           0.005952 (Hartree/Particle)
 Thermal correction to Energy=                    0.008312
 Thermal correction to Enthalpy=                  0.009257
 Thermal correction to Gibbs Free Energy=        -0.012459
 Sum of electronic and zero-point Energies=           -108.295002
 Sum of electronic and thermal Energies=              -108.292641
 Sum of electronic and thermal Enthalpies=            -108.291697
 Sum of electronic and thermal Free Energies=         -108.313412

                     E (Thermal)             CV                S
                      KCal/Mol        Cal/Mol-Kelvin    Cal/Mol-Kelvin
 Total                    5.216              4.969             45.704
 Electronic               0.000              0.000              0.000
 Translational            0.889              2.981             35.924
 Rotational               0.592              1.987              9.779
 Vibrational              3.735              0.001              0.000

 Optimization completed.
    -- Stationary point found.
 Normal termination of Gaussian 09 at Fri Oct 21 11:37:31 2016.

 -----------------------------------------------------
 #N Geom=AllCheck Guess=TCheck SCRF=Check MP4SDQ/6-31G
 -----------------------------------------------------

 Structure from the checkpoint file:  "n2-cbs4m.chk"
 -------------------
 Title Card Required
 -------------------
 Charge =  0 Multiplicity = 1

 SCF Done:  E(RHF) =  -108.867870421     A.U. after    8 cycles
 E2 =    -0.2317417750D+00 EUMP2 =    -0.10909961219603D+03
 Normal termination of Gaussian 09 at Fri Oct 21 11:37:32 2016.

 ----------------------------------------------------------------------
 #N Geom=AllCheck Guess=TCheck SCRF=Check MP2/6-31+D** CBSExtrap=(NMin=
 5,MinPop)
 ----------------------------------------------------------------------

 Structure from the checkpoint file:  "n2-cbs4m.chk"
 -------------------
 Title Card Required
 -------------------
 Charge =  0 Multiplicity = 1

 SCF Done:  E(RHF) =  -108.948448973     A.U. after    9 cycles
 E2 =    -0.3122661472D+00 EUMP2 =    -0.10926071512019D+03
 E2(CBS)=      -0.386807 CBS-Int=       0.019695 OIii=       3.119413
 Normal termination of Gaussian 09 at Fri Oct 21 11:37:34 2016.

 -----------------------------------------------------------
 #N Geom=AllCheck Guess=TCheck SCRF=Check HF/CBSB1 SCF=Tight
 -----------------------------------------------------------

 Structure from the checkpoint file:  "n2-cbs4m.chk"
 -------------------
 Title Card Required
 -------------------
 Charge =  0 Multiplicity = 1

                         Standard orientation:
 ---------------------------------------------------------------------
 Center     Atomic      Atomic             Coordinates (Angstroms)
 Number     Number       Type             X           Y           Z
 ---------------------------------------------------------------------
      1          7           0        0.000000    0.000000    0.541417
      2          7           0        0.000000    0.000000   -0.541417
 ---------------------------------------------------------------------

 SCF Done:  E(RHF) =  -108.982985822     A.U. after    8 cycles

 The electronic state is 1-SGG.
 Alpha  occ. eigenvalues --  -15.67988 -15.67601  -1.48439  -0.77528  -0.63684
 Alpha  occ. eigenvalues --   -0.62168  -0.62168
 Alpha virt. eigenvalues --    0.13400   0.13400   0.13849   0.14303   0.16450
 Alpha virt. eigenvalues --    0.16450   0.22018   0.27341   0.27341   0.33147
 Alpha virt. eigenvalues --    0.65397   0.82102   0.88914   0.88914   1.00658

 Mulliken charges:
               1
     1  N    0.000000
     2  N    0.000000
 Sum of Mulliken charges =   0.00000

 Dipole moment (field-independent basis, Debye):
    X=              0.0000    Y=              0.0000    Z=              0.0000  Tot=              0.0000
 Quadrupole moment (field-independent basis, Debye-Ang):
   XX=            -10.3548   YY=            -10.3548   ZZ=            -11.6847
   XY=              0.0000   XZ=              0.0000   YZ=              0.0000

 Normal termination of Gaussian 09 at Fri Oct 21 11:37:35 2016.
