 Gaussian 09, Revision D.01,
 Gaussian 09:  ES64L-G09RevD.01 24-Apr-2013

 ----------------------------------------------------------------------
 # opt freq=raman scrf=(smd,solvent=water) MP2(full)/6-311G** geom=chec
 k
 ----------------------------------------------------------------------

 -------------------
 Title Card Required
 -------------------
 Structure from the checkpoint file:  "n2-solopt.chk"
 Charge =  0 Multiplicity = 1

 SCF Done:  E(RHF) =  -108.964872393     A.U. after    9 cycles
 E2 =    -0.3699612399D+00 EUMP2 =    -0.10933483363296D+03
 SCF Done:  E(RHF) =  -108.964967210     A.U. after    6 cycles
 E2 =    -0.3698667712D+00 EUMP2 =    -0.10933483398158D+03
 Optimization completed.
    -- Stationary point found.
 Normal termination of Gaussian 09 at Fri Oct 21 11:25:37 2016.

 ----------------------------------------------------------------------
 #N Geom=AllCheck Guess=TCheck SCRF=Check GenChk RMP2-Full/6-311G(d,p)
 Freq
 ----------------------------------------------------------------------

 Structure from the checkpoint file:  "n2-solopt.chk"
 -------------------
 Title Card Required
 -------------------
 Charge =  0 Multiplicity = 1

                         Standard orientation:
 ---------------------------------------------------------------------
 Center     Atomic      Atomic             Coordinates (Angstroms)
 Number     Number       Type             X           Y           Z
 ---------------------------------------------------------------------
      1          7           0        0.000000    0.000000    0.559364
      2          7           0        0.000000    0.000000   -0.559364
 ---------------------------------------------------------------------

 SCF Done:  E(RHF) =  -108.964967210     A.U. after    1 cycles
 E2 =    -0.3698667712D+00 EUMP2 =    -0.10933483398150D+03
 E2 =    -0.3698667712D+00 EUMP2 =    -0.10933483398150D+03
 SCF Done:  E(RHF) =  -108.964967564     A.U. after    6 cycles
 E2 =    -0.3698667932D+00 EUMP2 =    -0.10933483435739D+03
 E2 =    -0.3698667932D+00 EUMP2 =    -0.10933483435739D+03
 SCF Done:  E(RHF) =  -108.964967564     A.U. after    6 cycles
 E2 =    -0.3698667932D+00 EUMP2 =    -0.10933483435739D+03
 E2 =    -0.3698667932D+00 EUMP2 =    -0.10933483435739D+03
 SCF Done:  E(RHF) =  -108.964968212     A.U. after    7 cycles
 E2 =    -0.3698666413D+00 EUMP2 =    -0.10933483485302D+03
 E2 =    -0.3698666413D+00 EUMP2 =    -0.10933483485302D+03

 Alpha  occ. eigenvalues --  -15.68677 -15.68363  -1.45520  -0.78174  -0.62848
 Alpha  occ. eigenvalues --   -0.60029  -0.60029
 Alpha virt. eigenvalues --    0.15777   0.15777   0.54615   0.68882   0.71530
 Alpha virt. eigenvalues --    0.71530   0.81439   0.89376   0.89376   1.00117
 Alpha virt. eigenvalues --    1.35456   1.97472   1.97472   1.99471   1.99471

 Mulliken charges:
               1
     1  N   -0.001309
     2  N    0.001309
 Sum of Mulliken charges =   0.00000

 Dipole moment (field-independent basis, Debye):
    X=              0.0000    Y=              0.0000    Z=             -0.0133  Tot=              0.0133
 Quadrupole moment (field-independent basis, Debye-Ang):
   XX=            -10.0890   YY=            -10.0890   ZZ=            -12.0534
   XY=              0.0000   XZ=              0.0000   YZ=              0.0000

  Exact polarizability:   6.765   0.000   6.765   0.000   0.000  15.686
 Approx polarizability:   5.506   0.000   5.506   0.000   0.000  17.022

                      1
                     SGG
 Frequencies --   2187.9621
 Red. masses --     14.0031
 Frc consts  --     39.4960
 IR Inten    --      0.0000
 Raman Activ --     12.4875

 - Thermochemistry -
 -------------------
 Temperature   298.150 Kelvin.  Pressure   1.00000 Atm.
 Atom     1 has atomic number  7 and mass  14.00307

 Molecular mass:    28.00615 amu.
 Principal axes and moments of inertia in atomic units:
                           1         2         3
     Eigenvalues --     0.00000  31.29245  31.29245
           X            0.00000   1.00000   0.00000
           Y            0.00000   0.00000   1.00000
           Z            1.00000   0.00000   0.00000
 This molecule is a prolate symmetric top.
 Rotational symmetry number  2.
 Rotational temperature (Kelvin)      2.76788
 Rotational constant (GHZ):          57.673366
 Zero-point vibrational energy      13086.9 (Joules/Mol)
                                    3.12785 (Kcal/Mol)
 Vibrational temperatures:   3147.99
          (Kelvin)

 Zero-point correction=                           0.004985 (Hartree/Particle)
 Thermal correction to Energy=                    0.007345
 Thermal correction to Enthalpy=                  0.008289
 Thermal correction to Gibbs Free Energy=        -0.013488
 Sum of electronic and zero-point Energies=           -109.329849
 Sum of electronic and thermal Energies=              -109.327489
 Sum of electronic and thermal Enthalpies=            -109.326545
 Sum of electronic and thermal Free Energies=         -109.348322

                     E (Thermal)             CV                S
                      KCal/Mol        Cal/Mol-Kelvin    Cal/Mol-Kelvin
 Total                    4.609              4.974             45.834
 Electronic               0.000              0.000              0.000
 Translational            0.889              2.981             35.924
 Rotational               0.592              1.987              9.909
 Vibrational              3.128              0.006              0.001

 Optimization completed.
    -- Stationary point found.
 Normal termination of Gaussian 09 at Fri Oct 21 11:26:10 2016.
