 Gaussian 09, Revision D.01,
 Gaussian 09:  ES64L-G09RevD.01 24-Apr-2013

 --------------------------------------------------------
 # scrf=(smd,solvent=water) mp2(full)/6-311G** geom=check
 --------------------------------------------------------

 -------------------
 Title Card Required
 -------------------
 Structure from the checkpoint file:  "sp-h3c+.chk"
 Charge =  0 Multiplicity = 2

                         Standard orientation:
 ---------------------------------------------------------------------
 Center     Atomic      Atomic             Coordinates (Angstroms)
 Number     Number       Type             X           Y           Z
 ---------------------------------------------------------------------
      1          6           0        0.000000    0.000000   -0.000256
      2          1           0        0.000000    1.078891    0.000511
      3          1           0       -0.934347   -0.539445    0.000511
      4          1           0        0.934347   -0.539445    0.000511
 ---------------------------------------------------------------------

 SCF Done:  E(UHF) =  -39.5684243628     A.U. after   11 cycles
 E2 =    -0.1528451880D+00 EUMP2 =    -0.39721269550789D+02

 Unable to determine electronic state:  an orbital has unidentified symmetry.
 Alpha  occ. eigenvalues --  -11.22513  -0.94137  -0.57273  -0.57272  -0.38125
 Alpha virt. eigenvalues --    0.17095   0.23878   0.23880   0.45391   0.45392
 Alpha virt. eigenvalues --    0.51642   0.57689   0.81961   0.81961   0.88624
 Alpha virt. eigenvalues --    1.27916   1.27917   1.64754   1.64755   1.67125

  Beta  occ. eigenvalues --  -11.20173  -0.84944  -0.55785  -0.55784
  Beta virt. eigenvalues --    0.13591   0.18292   0.24380   0.24381   0.45799
  Beta virt. eigenvalues --    0.45800   0.56281   0.71232   0.83634   0.83634
  Beta virt. eigenvalues --    0.92243   1.34031   1.34033   1.65328   1.65329

 Mulliken charges and spin densities:
               1          2
     1  C   -0.392586   1.273947
     2  H    0.130862  -0.091316
     3  H    0.130862  -0.091316
     4  H    0.130862  -0.091316
 Sum of Mulliken charges =   0.00000   1.00000

 Dipole moment (field-independent basis, Debye):
    X=              0.0000    Y=              0.0000    Z=              0.0020  Tot=              0.0020
 Quadrupole moment (field-independent basis, Debye-Ang):
   XX=             -7.0887   YY=             -7.0887   ZZ=             -8.8965
   XY=              0.0000   XZ=              0.0000   YZ=              0.0000

 Normal termination of Gaussian 09 at Fri Oct 21 11:31:00 2016.
