 Gaussian 09, Revision D.01,
 Gaussian 09:  ES64L-G09RevD.01 24-Apr-2013

 -------------------------------------------------------
 #scrf=(smd,solvent=water) MP2(full)/6-311G** geom=check
 -------------------------------------------------------

 -------------------
 Title Card Required
 -------------------
 Structure from the checkpoint file:  "sp-n2.chk"
 Charge =  0 Multiplicity = 1

                         Standard orientation:
 ---------------------------------------------------------------------
 Center     Atomic      Atomic             Coordinates (Angstroms)
 Number     Number       Type             X           Y           Z
 ---------------------------------------------------------------------
      1          7           0        0.000000    0.000000    0.559523
      2          7           0        0.000000    0.000000   -0.559523
 ---------------------------------------------------------------------

 SCF Done:  E(RHF) =  -108.964872393     A.U. after    9 cycles
 E2 =    -0.3699612399D+00 EUMP2 =    -0.10933483363296D+03

 The electronic state is 1-SGG.
 Alpha  occ. eigenvalues --  -15.68687 -15.68375  -1.45496  -0.78184  -0.62845
 Alpha  occ. eigenvalues --   -0.60016  -0.60016
 Alpha virt. eigenvalues --    0.15761   0.15761   0.54606   0.68887   0.71537
 Alpha virt. eigenvalues --    0.71537   0.81437   0.89368   0.89368   1.00088
 Alpha virt. eigenvalues --    1.35414   1.97485   1.97485   1.99443   1.99443

 Mulliken charges:
               1
     1  N    0.000000
     2  N    0.000000
 Sum of Mulliken charges =   0.00000

 Dipole moment (field-independent basis, Debye):
    X=              0.0000    Y=              0.0000    Z=              0.0000  Tot=              0.0000
 Quadrupole moment (field-independent basis, Debye-Ang):
   XX=            -10.3050   YY=            -10.3050   ZZ=            -11.8989
   XY=              0.0000   XZ=              0.0000   YZ=              0.0000

 Normal termination of Gaussian 09 at Fri Oct 21 11:31:08 2016.
