 Gaussian 09, Revision D.01,
 Gaussian 09:  ES64L-G09RevD.01 24-Apr-2013

 --------------------------------------------
 # opt=tight RHF/6-31g* gfp geom=connectivity
 --------------------------------------------

 ---
 HNC
 ---
 Symbolic Z-matrix:
 Charge =  0 Multiplicity = 1

 SCF Done:  E(RHF) =  -92.8062927792     A.U. after   10 cycles
 SCF Done:  E(RHF) =  -92.8703437071     A.U. after   11 cycles
 SCF Done:  E(RHF) =  -92.8744887575     A.U. after    9 cycles
 SCF Done:  E(RHF) =  -92.8751842030     A.U. after    9 cycles
 SCF Done:  E(RHF) =  -92.8751974300     A.U. after    8 cycles
 SCF Done:  E(RHF) =  -92.8751974913     A.U. after    7 cycles
 SCF Done:  E(RHF) =  -92.8751974915     A.U. after    4 cycles
 Optimization completed.
    -- Stationary point found.

                         Standard orientation:
 ---------------------------------------------------------------------
 Center     Atomic      Atomic             Coordinates (Angstroms)
 Number     Number       Type             X           Y           Z
 ---------------------------------------------------------------------
      1          6           0        0.000000    0.000000   -0.490620
      2          7           0        0.000000    0.000000    0.641907
      3          1           0        0.000000    0.000000   -1.549631
 ---------------------------------------------------------------------

 The electronic state is 1-SG.
 Alpha  occ. eigenvalues --  -15.59705 -11.28842  -1.24286  -0.80831  -0.57380
 Alpha  occ. eigenvalues --   -0.49706  -0.49706
 Alpha virt. eigenvalues --    0.20436   0.20436   0.23314   0.42232   0.73701
 Alpha virt. eigenvalues --    0.73701   0.83331   0.90705   1.04163   1.04163
 Alpha virt. eigenvalues --    1.04853   1.46433   1.68133   1.76909   1.76909

 Mulliken charges:
               1
     1  C    0.066291
     2  N   -0.378885
     3  H    0.312594
 Sum of Mulliken charges =   0.00000

 Dipole moment (field-independent basis, Debye):
    X=              0.0000    Y=              0.0000    Z=             -3.2087  Tot=              3.2087
 Quadrupole moment (field-independent basis, Debye-Ang):
   XX=            -11.5658   YY=            -11.5658   ZZ=             -9.5339
   XY=              0.0000   XZ=              0.0000   YZ=              0.0000

 Normal termination of Gaussian 09 at Fri Sep 23 11:44:38 2016.
