 Gaussian 09, Revision D.01,
 Gaussian 09:  ES64L-G09RevD.01 24-Apr-2013

 -----------------------------------------
 # opt=(modredundant,tight) RHF/6-31g* gfp
 -----------------------------------------

 -------
 HNC-HCN
 -------
 Symbolic Z-matrix:
 Charge =  0 Multiplicity = 1

 SCF Done:  E(RHF) =  -92.7043367201     A.U. after   12 cycles
 SCF Done:  E(RHF) =  -92.8022154988     A.U. after   13 cycles
 SCF Done:  E(RHF) =  -92.8475121046     A.U. after   13 cycles
 SCF Done:  E(RHF) =  -92.8520815774     A.U. after   12 cycles
 SCF Done:  E(RHF) =  -92.8532059659     A.U. after   10 cycles
 SCF Done:  E(RHF) =  -92.8532203849     A.U. after    9 cycles
 SCF Done:  E(RHF) =  -92.8532203901     A.U. after    5 cycles
 SCF Done:  E(RHF) =  -92.8532204609     A.U. after    5 cycles
 Optimization completed.
    -- Stationary point found.
 SCF Done:  E(RHF) =  -92.8496987090     A.U. after   12 cycles
 SCF Done:  E(RHF) =  -92.8504379102     A.U. after   11 cycles
 Optimization completed.
 SCF Done:  E(RHF) =  -92.8688333656     A.U. after   12 cycles
 SCF Done:  E(RHF) =  -92.8690828823     A.U. after   10 cycles
 SCF Done:  E(RHF) =  -92.8690833211     A.U. after    8 cycles
 SCF Done:  E(RHF) =  -92.8690833282     A.U. after    5 cycles
 SCF Done:  E(RHF) =  -92.8715364800     A.U. after   12 cycles
 SCF Done:  E(RHF) =  -92.8716899403     A.U. after    9 cycles
 SCF Done:  E(RHF) =  -92.8716901123     A.U. after    7 cycles
    -- Stationary point found.
 SCF Done:  E(RHF) =  -92.8735099927     A.U. after   11 cycles
 SCF Done:  E(RHF) =  -92.8735906160     A.U. after    9 cycles
 SCF Done:  E(RHF) =  -92.8735906631     A.U. after    6 cycles
 Optimization completed.
    -- Stationary point found.

                         Standard orientation:
 ---------------------------------------------------------------------
 Center     Atomic      Atomic             Coordinates (Angstroms)
 Number     Number       Type             X           Y           Z
 ---------------------------------------------------------------------
      1          7           0        0.014438    0.640813    0.000000
      2          6           0        0.014438   -0.492257    0.000000
      3          1           0       -0.187696   -1.532149    0.000000
 ---------------------------------------------------------------------

 The electronic state is 1-A'.
 Alpha  occ. eigenvalues --  -15.59789 -11.28821  -1.24307  -0.80687  -0.57426
 Alpha  occ. eigenvalues --   -0.49722  -0.49678
 Alpha virt. eigenvalues --    0.18770   0.20407   0.24929   0.42312   0.73730
 Alpha virt. eigenvalues --    0.73741   0.83349   0.89969   1.02996   1.04108
 Alpha virt. eigenvalues --    1.06820   1.41477   1.63625   1.76829   1.76926

 Mulliken charges:
               1
     1  N   -0.360460
     2  C    0.053519
     3  H    0.306940
 Sum of Mulliken charges =   0.00000

 Dipole moment (field-independent basis, Debye):
    X=             -0.2602    Y=             -3.1694    Z=              0.0000  Tot=              3.1800
 Quadrupole moment (field-independent basis, Debye-Ang):
   XX=            -11.5138   YY=             -9.6147   ZZ=            -11.5716
   XY=              0.3425   XZ=              0.0000   YZ=              0.0000

 Normal termination of Gaussian 09 at Mon Sep 26 16:22:19 2016.
