 Gaussian 09, Revision D.01,
 Gaussian 09:  ES64L-G09RevD.01 24-Apr-2013

 -----------------------------------------
 # opt=(modredundant,tight) RHF/6-31g* gfp
 -----------------------------------------

 -------
 HNC-HCN
 -------
 Symbolic Z-matrix:
 Charge =  0 Multiplicity = 1

 SCF Done:  E(RHF) =  -92.7140386142     A.U. after   10 cycles
 SCF Done:  E(RHF) =  -92.8110554791     A.U. after   11 cycles
 SCF Done:  E(RHF) =  -92.6710769411     A.U. after   11 cycles
 SCF Done:  E(RHF) =  -92.8546302471     A.U. after   10 cycles
 SCF Done:  E(RHF) =  -92.8552202599     A.U. after    9 cycles
 SCF Done:  E(RHF) =  -92.8553108961     A.U. after    8 cycles
 SCF Done:  E(RHF) =  -92.8553280795     A.U. after    8 cycles
 SCF Done:  E(RHF) =  -92.8553280824     A.U. after    5 cycles
 Optimization completed.
    -- Stationary point found.

                         Standard orientation:
 ---------------------------------------------------------------------
 Center     Atomic      Atomic             Coordinates (Angstroms)
 Number     Number       Type             X           Y           Z
 ---------------------------------------------------------------------
      1          7           0        0.000000    0.000000    0.424290
      2          6           0        0.000000    0.000000   -0.729915
      3          1           0        0.000000    0.000000    1.409458
 ---------------------------------------------------------------------

 The electronic state is 1-SG.
 Alpha  occ. eigenvalues --  -15.60556 -11.28332  -1.26544  -0.87529  -0.51638
 Alpha  occ. eigenvalues --   -0.51638  -0.47852
 Alpha virt. eigenvalues --    0.20908   0.20908   0.21816   0.49007   0.72873
 Alpha virt. eigenvalues --    0.77288   0.77288   0.84439   0.99660   0.99660
 Alpha virt. eigenvalues --    1.18323   1.46585   1.70344   1.77708   1.77708

 Mulliken charges:
               1
     1  N   -0.582071
     2  C    0.152339
     3  H    0.429732
 Sum of Mulliken charges =   0.00000

 Dipole moment (field-independent basis, Debye):
    X=              0.0000    Y=              0.0000    Z=              2.8321  Tot=              2.8321
 Quadrupole moment (field-independent basis, Debye-Ang):
   XX=            -11.6687   YY=            -11.6687   ZZ=             -9.9263
   XY=              0.0000   XZ=              0.0000   YZ=              0.0000

 Normal termination of Gaussian 09 at Mon Sep 26 16:34:33 2016.
