 Gaussian 09, Revision D.01,
 Gaussian 09:  ES64L-G09RevD.01 24-Apr-2013

 --------------------------------------------------------------
 # irc=(maxpoints=31,maxcycle=40,report,calcfc) rhf/6-311g* gfp
 --------------------------------------------------------------

 -------
 HNC-HCN
 -------
 Symbolic Z-matrix:
 Charge =  0 Multiplicity = 1

 SCF Done:  E(RHF) =  -92.8162574644     A.U. after   13 cycles
 SCF Done:  E(RHF) =  -92.8165742275     A.U. after   12 cycles
 SCF Done:  E(RHF) =  -92.8175061392     A.U. after   12 cycles
 SCF Done:  E(RHF) =  -92.8190040601     A.U. after   12 cycles
 SCF Done:  E(RHF) =  -92.8209838796     A.U. after   12 cycles
 SCF Done:  E(RHF) =  -92.8233317950     A.U. after   12 cycles
 SCF Done:  E(RHF) =  -92.8259105506     A.U. after   12 cycles
 SCF Done:  E(RHF) =  -92.8285763761     A.U. after   11 cycles
 SCF Done:  E(RHF) =  -92.8312055925     A.U. after   11 cycles
 SCF Done:  E(RHF) =  -92.8337209050     A.U. after   11 cycles
 SCF Done:  E(RHF) =  -92.8814610252     A.U. after   11 cycles
 SCF Done:  E(RHF) =  -92.8843626600     A.U. after   11 cycles
 SCF Done:  E(RHF) =  -92.8869925630     A.U. after   11 cycles
 SCF Done:  E(RHF) =  -92.8893375223     A.U. after   11 cycles
 SCF Done:  E(RHF) =  -92.8913859760     A.U. after   11 cycles
 SCF Done:  E(RHF) =  -92.8931277041     A.U. after   11 cycles
 SCF Done:  E(RHF) =  -92.8945537024     A.U. after   11 cycles
 SCF Done:  E(RHF) =  -92.8956561459     A.U. after   11 cycles
 SCF Done:  E(RHF) =  -92.8964284554     A.U. after   11 cycles
 SCF Done:  E(RHF) =  -92.8968653205     A.U. after   11 cycles

                          Input orientation:
 ---------------------------------------------------------------------
 Center     Atomic      Atomic             Coordinates (Angstroms)
 Number     Number       Type             X           Y           Z
 ---------------------------------------------------------------------
      1          7           0       -0.144565    0.000000   -0.561967
      2          6           0        0.129101    0.000000    0.531673
      3          1           0        0.439307    0.000000    1.546475
 ---------------------------------------------------------------------

 Alpha  occ. eigenvalues --  -15.58766 -11.28122  -1.25022  -0.80948  -0.57908
 Alpha  occ. eigenvalues --   -0.50306  -0.50303
 Alpha virt. eigenvalues --    0.15123   0.19092   0.19121   0.29933   0.57378
 Alpha virt. eigenvalues --    0.57379   0.59443   0.74754   0.81368   0.90642
 Alpha virt. eigenvalues --    0.90669   1.23093   1.37370   1.49665   1.49666

 Mulliken charges:
               1
     1  N   -0.303302
     2  C   -0.038774
     3  H    0.342076
 Sum of Mulliken charges =   0.00000

 Dipole moment (field-independent basis, Debye):
    X=              0.8504    Y=              0.0000    Z=              3.1074  Tot=              3.2217
 Quadrupole moment (field-independent basis, Debye-Ang):
   XX=            -11.5195   YY=            -11.7160   ZZ=             -9.4400
   XY=              0.0000   XZ=              0.6685   YZ=              0.0000

  Exact polarizability:   0.000   0.000   0.000   0.000   0.000   0.000
 Approx polarizability:   8.358   0.000   7.615   2.987   0.000  19.775

 Normal termination of Gaussian 09 at Tue Sep 27 20:07:33 2016.
