 Gaussian 09, Revision D.01,
 Gaussian 09:  ES64L-G09RevD.01 24-Apr-2013

 -----------------------------------------
 # opt=(modredundant,tight) RHF/6-31g* gfp
 -----------------------------------------

 -------
 HNC-HCN
 -------
 Symbolic Z-matrix:
 Charge =  0 Multiplicity = 1

 SCF Done:  E(RHF) =  -92.5629029767     A.U. after   12 cycles
 SCF Done:  E(RHF) =  -92.6365513382     A.U. after   10 cycles
 SCF Done:  E(RHF) =  -92.7142485051     A.U. after   11 cycles
 SCF Done:  E(RHF) =  -92.7430026670     A.U. after   12 cycles
 SCF Done:  E(RHF) =  -92.8445492088     A.U. after   11 cycles
 SCF Done:  E(RHF) =  -92.7694881139     A.U. after   11 cycles
 SCF Done:  E(RHF) =  -92.8730954592     A.U. after   10 cycles
 SCF Done:  E(RHF) =  -92.8609074070     A.U. after   10 cycles
 SCF Done:  E(RHF) =  -92.8749856877     A.U. after    9 cycles
 SCF Done:  E(RHF) =  -92.8751963047     A.U. after    9 cycles
 SCF Done:  E(RHF) =  -92.8751974899     A.U. after    7 cycles
 SCF Done:  E(RHF) =  -92.8751974915     A.U. after    6 cycles
 Optimization completed.
    -- Stationary point found.

                         Standard orientation:
 ---------------------------------------------------------------------
 Center     Atomic      Atomic             Coordinates (Angstroms)
 Number     Number       Type             X           Y           Z
 ---------------------------------------------------------------------
      1          7           0        0.000000    0.000000    0.641907
      2          6           0        0.000000    0.000000   -0.490620
      3          1           0        0.000000    0.000000   -1.549632
 ---------------------------------------------------------------------

 The electronic state is 1-SG.
 Alpha  occ. eigenvalues --  -15.59705 -11.28842  -1.24286  -0.80831  -0.57380
 Alpha  occ. eigenvalues --   -0.49706  -0.49706
 Alpha virt. eigenvalues --    0.20436   0.20436   0.23314   0.42232   0.73701
 Alpha virt. eigenvalues --    0.73701   0.83331   0.90705   1.04163   1.04163
 Alpha virt. eigenvalues --    1.04853   1.46433   1.68133   1.76909   1.76909

 Mulliken charges:
               1
     1  N   -0.378885
     2  C    0.066291
     3  H    0.312594
 Sum of Mulliken charges =   0.00000

 Dipole moment (field-independent basis, Debye):
    X=              0.0000    Y=              0.0000    Z=             -3.2087  Tot=              3.2087
 Quadrupole moment (field-independent basis, Debye-Ang):
   XX=            -11.5658   YY=            -11.5658   ZZ=             -9.5339
   XY=              0.0000   XZ=              0.0000   YZ=              0.0000

 Normal termination of Gaussian 09 at Mon Sep 26 16:33:24 2016.
