 Gaussian 09, Revision D.01,
 Gaussian 09:  ES64L-G09RevD.01 24-Apr-2013

 ------------------------
 # irc=calcfc rhf/Gen gfp
 ------------------------

 -------
 HNC-HCN
 -------
 Symbolic Z-matrix:
 Charge =  0 Multiplicity = 1

 SCF Done:  E(RHF) =  -92.8134762725     A.U. after   13 cycles
 SCF Done:  E(RHF) =  -92.8137878546     A.U. after   12 cycles
 SCF Done:  E(RHF) =  -92.8147082298     A.U. after   12 cycles
 SCF Done:  E(RHF) =  -92.8161963795     A.U. after   12 cycles
 SCF Done:  E(RHF) =  -92.8181793320     A.U. after   11 cycles
 SCF Done:  E(RHF) =  -92.8205567262     A.U. after   11 cycles
 SCF Done:  E(RHF) =  -92.8232041013     A.U. after   11 cycles
 SCF Done:  E(RHF) =  -92.8259841904     A.U. after   11 cycles
 SCF Done:  E(RHF) =  -92.8287672746     A.U. after   11 cycles
 SCF Done:  E(RHF) =  -92.8314565044     A.U. after   11 cycles
 SCF Done:  E(RHF) =  -92.8137892716     A.U. after   14 cycles
 SCF Done:  E(RHF) =  -92.8147186653     A.U. after   12 cycles
 SCF Done:  E(RHF) =  -92.8162396469     A.U. after   12 cycles
 SCF Done:  E(RHF) =  -92.8183074429     A.U. after   12 cycles
 SCF Done:  E(RHF) =  -92.8208679378     A.U. after   12 cycles
 SCF Done:  E(RHF) =  -92.8238594128     A.U. after   12 cycles
 SCF Done:  E(RHF) =  -92.8272162074     A.U. after   12 cycles
 SCF Done:  E(RHF) =  -92.8308713187     A.U. after   12 cycles
 SCF Done:  E(RHF) =  -92.8347584292     A.U. after   12 cycles
 SCF Done:  E(RHF) =  -92.8388133183     A.U. after   12 cycles

                          Input orientation:
 ---------------------------------------------------------------------
 Center     Atomic      Atomic             Coordinates (Angstroms)
 Number     Number       Type             X           Y           Z
 ---------------------------------------------------------------------
      1          7           0       -0.078289    0.000000   -0.565953
      2          6           0        0.003728    0.000000    0.585008
      3          1           0        1.043425    0.000000    0.900083
 ---------------------------------------------------------------------

 Alpha  occ. eigenvalues --  -15.63981 -11.29424  -1.26990  -0.76257  -0.59894
 Alpha  occ. eigenvalues --   -0.51738  -0.49522
 Alpha virt. eigenvalues --    0.05426   0.07253   0.07451   0.09691   0.10779
 Alpha virt. eigenvalues --    0.15209   0.17022   0.18788   0.21486   0.38130
 Alpha virt. eigenvalues --    0.40809   0.54304   0.58784   0.70763   0.86259

 Mulliken charges:
               1
     1  N   -0.082474
     2  C   -0.121991
     3  H    0.204465
 Sum of Mulliken charges =   0.00000

 Dipole moment (field-independent basis, Debye):
    X=              1.6217    Y=              0.0000    Z=              1.5617  Tot=              2.2515
 Quadrupole moment (field-independent basis, Debye-Ang):
   XX=            -10.1976   YY=            -12.0554   ZZ=            -12.5641
   XY=              0.0000   XZ=              1.1492   YZ=              0.0000

  Exact polarizability:   0.000   0.000   0.000   0.000   0.000   0.000
 Approx polarizability:  11.046   0.000   9.038  -0.350   0.000  23.693

 Normal termination of Gaussian 09 at Tue Sep 27 10:35:04 2016.
