 Gaussian 09, Revision D.01,
 Gaussian 09:  ES64L-G09RevD.01 24-Apr-2013

 -----------------------------------------------
 # irc=calcfc rhf/6-31g(d) geom=connectivity gfp
 -----------------------------------------------

 -------
 HNC-HCN
 -------
 Symbolic Z-matrix:
 Charge =  0 Multiplicity = 1

 SCF Done:  E(RHF) =  -92.7919534189     A.U. after   13 cycles
 SCF Done:  E(RHF) =  -92.7922835738     A.U. after   12 cycles
 SCF Done:  E(RHF) =  -92.7932488748     A.U. after   12 cycles
 SCF Done:  E(RHF) =  -92.7947897845     A.U. after   12 cycles
 SCF Done:  E(RHF) =  -92.7968114898     A.U. after   12 cycles
 SCF Done:  E(RHF) =  -92.7991916012     A.U. after   12 cycles
 SCF Done:  E(RHF) =  -92.8017886960     A.U. after   11 cycles
 SCF Done:  E(RHF) =  -92.8044602387     A.U. after   11 cycles
 SCF Done:  E(RHF) =  -92.8070881228     A.U. after   11 cycles
 SCF Done:  E(RHF) =  -92.8096022568     A.U. after   11 cycles
 SCF Done:  E(RHF) =  -92.7922873889     A.U. after   14 cycles
 SCF Done:  E(RHF) =  -92.7932846544     A.U. after   11 cycles
 SCF Done:  E(RHF) =  -92.7949223135     A.U. after   12 cycles
 SCF Done:  E(RHF) =  -92.7971527401     A.U. after   11 cycles
 SCF Done:  E(RHF) =  -92.7999150214     A.U. after   11 cycles
 SCF Done:  E(RHF) =  -92.8031379266     A.U. after   11 cycles
 SCF Done:  E(RHF) =  -92.8067448103     A.U. after   11 cycles
 SCF Done:  E(RHF) =  -92.8106575416     A.U. after   12 cycles
 SCF Done:  E(RHF) =  -92.8147997543     A.U. after   12 cycles
 SCF Done:  E(RHF) =  -92.8190992480     A.U. after   12 cycles

                          Input orientation:
 ---------------------------------------------------------------------
 Center     Atomic      Atomic             Coordinates (Angstroms)
 Number     Number       Type             X           Y           Z
 ---------------------------------------------------------------------
      1          7           0        0.078258   -0.564010    0.000000
      2          6           0       -0.003374    0.584434    0.000000
      3          1           0       -1.047231    0.879642    0.000000
 ---------------------------------------------------------------------

 Alpha  occ. eigenvalues --  -15.63075 -11.27945  -1.26444  -0.75583  -0.59247
 Alpha  occ. eigenvalues --   -0.51047  -0.48823
 Alpha virt. eigenvalues --    0.08836   0.19530   0.29225   0.42844   0.74700
 Alpha virt. eigenvalues --    0.75359   0.81052   0.89788   1.00633   1.01826
 Alpha virt. eigenvalues --    1.08782   1.15934   1.47938   1.75041   1.80982

 Mulliken charges:
               1
     1  N   -0.214874
     2  C   -0.065843
     3  H    0.280717
 Sum of Mulliken charges =   0.00000

 Dipole moment (field-independent basis, Debye):
    X=             -1.5281    Y=              1.5106    Z=              0.0000  Tot=              2.1487
 Quadrupole moment (field-independent basis, Debye-Ang):
   XX=             -9.9324   YY=            -12.3453   ZZ=            -11.7524
   XY=             -1.0712   XZ=              0.0000   YZ=              0.0000

  Exact polarizability:   0.000   0.000   0.000   0.000   0.000   0.000
 Approx polarizability:   9.814   0.290  22.416   0.000   0.000   7.233

 Normal termination of Gaussian 09 at Mon Sep 26 17:07:32 2016.
