 Gaussian 09, Revision D.01,
 Gaussian 09:  ES64L-G09RevD.01 24-Apr-2013

 ------------------------------------------------------------------
 # irc=(forward,maxpoints=33,maxcycle=50,report,calcfc) rhf/Gen gfp
 ------------------------------------------------------------------

 -------
 HNC-HCN
 -------
 Symbolic Z-matrix:
 Charge =  0 Multiplicity = 1

 SCF Done:  E(RHF) =  -92.8134762725     A.U. after   13 cycles
 SCF Done:  E(RHF) =  -92.8137878546     A.U. after   12 cycles
 SCF Done:  E(RHF) =  -92.8147082298     A.U. after   12 cycles
 SCF Done:  E(RHF) =  -92.8161963795     A.U. after   12 cycles
 SCF Done:  E(RHF) =  -92.8181793320     A.U. after   11 cycles
 SCF Done:  E(RHF) =  -92.8205567262     A.U. after   11 cycles
 SCF Done:  E(RHF) =  -92.8232041013     A.U. after   11 cycles
 SCF Done:  E(RHF) =  -92.8259841904     A.U. after   11 cycles
 SCF Done:  E(RHF) =  -92.8287672746     A.U. after   11 cycles
 SCF Done:  E(RHF) =  -92.8314565044     A.U. after   11 cycles
 SCF Done:  E(RHF) =  -92.8615805690     A.U. after   11 cycles
 SCF Done:  E(RHF) =  -92.8631769903     A.U. after   11 cycles
 SCF Done:  E(RHF) =  -92.8647121683     A.U. after   11 cycles
 SCF Done:  E(RHF) =  -92.8661836427     A.U. after   11 cycles
 SCF Done:  E(RHF) =  -92.8675886313     A.U. after   11 cycles
 SCF Done:  E(RHF) =  -92.8689245487     A.U. after   11 cycles
 SCF Done:  E(RHF) =  -92.8701870301     A.U. after   11 cycles
 SCF Done:  E(RHF) =  -92.8713734452     A.U. after   11 cycles
 SCF Done:  E(RHF) =  -92.8724731852     A.U. after   11 cycles
 SCF Done:  E(RHF) =  -92.8734886413     A.U. after   11 cycles

                          Input orientation:
 ---------------------------------------------------------------------
 Center     Atomic      Atomic             Coordinates (Angstroms)
 Number     Number       Type             X           Y           Z
 ---------------------------------------------------------------------
      1          7           0        0.094938    0.000000   -0.475786
      2          6           0       -0.173109    0.000000    0.656215
      3          1           0        0.733301    0.000000   -1.231562
 ---------------------------------------------------------------------

 Alpha  occ. eigenvalues --  -15.61197 -11.31251  -1.27646  -0.86960  -0.53363
 Alpha  occ. eigenvalues --   -0.52417  -0.49060
 Alpha virt. eigenvalues --    0.07276   0.08462   0.08685   0.10381   0.13226
 Alpha virt. eigenvalues --    0.14020   0.16558   0.20420   0.21615   0.36701
 Alpha virt. eigenvalues --    0.42387   0.60847   0.60920   0.77436   0.86594

 Mulliken charges:
               1
     1  N   -0.375607
     2  C    0.072876
     3  H    0.302731
 Sum of Mulliken charges =   0.00000

 Dipole moment (field-independent basis, Debye):
    X=              1.5614    Y=              0.0000    Z=             -2.3082  Tot=              2.7867
 Quadrupole moment (field-independent basis, Debye-Ang):
   XX=            -11.0415   YY=            -12.1430   ZZ=            -11.3736
   XY=              0.0000   XZ=             -1.3434   YZ=              0.0000

  Exact polarizability:   0.000   0.000   0.000   0.000   0.000   0.000
 Approx polarizability:  10.400   0.000   9.546  -2.083   0.000  19.447

 Normal termination of Gaussian 09 at Tue Sep 27 19:38:13 2016.
