 Gaussian 09, Revision D.01,
 Gaussian 09:  ES64L-G09RevD.01 24-Apr-2013

 -------------------------
 # opt=(tight) RHF/Gen gfp
 -------------------------

 -------
 HNC-HCN
 -------
 Symbolic Z-matrix:
 Charge =  0 Multiplicity = 1

 SCF Done:  E(RHF) =  -92.5789546295     A.U. after   12 cycles
 SCF Done:  E(RHF) =  -92.6536010679     A.U. after   11 cycles
 SCF Done:  E(RHF) =  -92.7307649270     A.U. after   12 cycles
 SCF Done:  E(RHF) =  -92.7572474772     A.U. after   12 cycles
 SCF Done:  E(RHF) =  -92.8591209508     A.U. after   11 cycles
 SCF Done:  E(RHF) =  -92.8224284101     A.U. after   11 cycles
 SCF Done:  E(RHF) =  -92.8907712641     A.U. after   12 cycles
 SCF Done:  E(RHF) =  -92.8817887486     A.U. after   12 cycles
 SCF Done:  E(RHF) =  -92.8916376723     A.U. after   11 cycles
 SCF Done:  E(RHF) =  -92.8916767395     A.U. after   12 cycles
 SCF Done:  E(RHF) =  -92.8916810517     A.U. after    7 cycles
 Optimization completed.
    -- Stationary point found.

                         Standard orientation:
 ---------------------------------------------------------------------
 Center     Atomic      Atomic             Coordinates (Angstroms)
 Number     Number       Type             X           Y           Z
 ---------------------------------------------------------------------
      1          7           0        0.000000    0.000000    0.643657
      2          6           0        0.000000    0.000000   -0.492073
      3          1           0        0.000000    0.000000   -1.553157
 ---------------------------------------------------------------------

 The electronic state is 1-SG.
 Alpha  occ. eigenvalues --  -15.60752 -11.30040  -1.24832  -0.81311  -0.58032
 Alpha  occ. eigenvalues --   -0.50372  -0.50372
 Alpha virt. eigenvalues --    0.06077   0.07110   0.07110   0.11191   0.15511
 Alpha virt. eigenvalues --    0.15511   0.17302   0.22479   0.22479   0.30143
 Alpha virt. eigenvalues --    0.49063   0.57964   0.57964   0.71102   0.81560

 Mulliken charges:
               1
     1  N   -0.133458
     2  C   -0.087657
     3  H    0.221115
 Sum of Mulliken charges =   0.00000

 Dipole moment (field-independent basis, Debye):
    X=              0.0000    Y=              0.0000    Z=             -3.2723  Tot=              3.2723
 Quadrupole moment (field-independent basis, Debye-Ang):
   XX=            -11.8690   YY=            -11.8690   ZZ=             -9.6549
   XY=              0.0000   XZ=              0.0000   YZ=              0.0000

 Normal termination of Gaussian 09 at Tue Sep 27 10:11:09 2016.
