 Gaussian 09, Revision D.01,
 Gaussian 09:  ES64L-G09RevD.01 24-Apr-2013

 --------------------------------------
 # opt=(modredundant,tight) RHF/Gen gfp
 --------------------------------------

 -------
 HNC-HCN
 -------
 Symbolic Z-matrix:
 Charge =  0 Multiplicity = 1

 SCF Done:  E(RHF) =  -92.7249192722     A.U. after   12 cycles
 SCF Done:  E(RHF) =  -92.8232919179     A.U. after   13 cycles
 SCF Done:  E(RHF) =  -92.8686155360     A.U. after   13 cycles
 SCF Done:  E(RHF) =  -92.8734020251     A.U. after   12 cycles
 SCF Done:  E(RHF) =  -92.8746801725     A.U. after   10 cycles
 SCF Done:  E(RHF) =  -92.8747071403     A.U. after    9 cycles
 SCF Done:  E(RHF) =  -92.8747071674     A.U. after    7 cycles
 SCF Done:  E(RHF) =  -92.8747072552     A.U. after    4 cycles
 Optimization completed.
    -- Stationary point found.
 SCF Done:  E(RHF) =  -92.8709534149     A.U. after   12 cycles
 SCF Done:  E(RHF) =  -92.8716844569     A.U. after   11 cycles
 Optimization completed.
 SCF Done:  E(RHF) =  -92.8856267385     A.U. after   11 cycles
 SCF Done:  E(RHF) =  -92.8858695814     A.U. after    9 cycles
 SCF Done:  E(RHF) =  -92.8858699880     A.U. after    7 cycles
 SCF Done:  E(RHF) =  -92.8858699946     A.U. after    5 cycles
 SCF Done:  E(RHF) =  -92.8882158849     A.U. after   11 cycles
 SCF Done:  E(RHF) =  -92.8883646816     A.U. after    9 cycles
 SCF Done:  E(RHF) =  -92.8883648407     A.U. after    7 cycles
    -- Stationary point found.
 SCF Done:  E(RHF) =  -92.8900908325     A.U. after   11 cycles
 SCF Done:  E(RHF) =  -92.8901687557     A.U. after    9 cycles
 SCF Done:  E(RHF) =  -92.8901687991     A.U. after    6 cycles
 Optimization completed.
    -- Stationary point found.

                         Standard orientation:
 ---------------------------------------------------------------------
 Center     Atomic      Atomic             Coordinates (Angstroms)
 Number     Number       Type             X           Y           Z
 ---------------------------------------------------------------------
      1          7           0        0.014468    0.642558    0.000000
      2          6           0        0.014468   -0.493696    0.000000
      3          1           0       -0.188083   -1.535729    0.000000
 ---------------------------------------------------------------------

 The electronic state is 1-A'.
 Alpha  occ. eigenvalues --  -15.60828 -11.30022  -1.24857  -0.81165  -0.58077
 Alpha  occ. eigenvalues --   -0.50388  -0.50343
 Alpha virt. eigenvalues --    0.06095   0.07075   0.07119   0.11173   0.15158
 Alpha virt. eigenvalues --    0.15504   0.17381   0.22087   0.22452   0.30829
 Alpha virt. eigenvalues --    0.48950   0.57803   0.57984   0.71129   0.81631

 Mulliken charges:
               1
     1  N   -0.131041
     2  C   -0.088990
     3  H    0.220031
 Sum of Mulliken charges =   0.00000

 Dipole moment (field-independent basis, Debye):
    X=             -0.2788    Y=             -3.2341    Z=              0.0000  Tot=              3.2461
 Quadrupole moment (field-independent basis, Debye-Ang):
   XX=            -11.8179   YY=             -9.7366   ZZ=            -11.8742
   XY=              0.3546   XZ=              0.0000   YZ=              0.0000

 Normal termination of Gaussian 09 at Tue Sep 27 10:23:37 2016.
