 Gaussian 09, Revision D.01,
 Gaussian 09:  ES64L-G09RevD.01 24-Apr-2013

 --------------------------------------
 # opt=(ts,tight,calcfc) RHF/6-31g* gfp
 --------------------------------------

 -------
 HNC-HCN
 -------
 Symbolic Z-matrix:
 Charge =  0 Multiplicity = 1

 SCF Done:  E(RHF) =  -92.6901731392     A.U. after   13 cycles

  Exact polarizability:   0.000   0.000   0.000   0.000   0.000   0.000
 Approx polarizability:  12.984   0.720  15.781   0.000   0.000   7.580

 SCF Done:  E(RHF) =  -92.7726760073     A.U. after   14 cycles
 SCF Done:  E(RHF) =  -92.7888977770     A.U. after   11 cycles
 SCF Done:  E(RHF) =  -92.7912114356     A.U. after   11 cycles
 SCF Done:  E(RHF) =  -92.7919415024     A.U. after   12 cycles
 SCF Done:  E(RHF) =  -92.7919533902     A.U. after   10 cycles
 SCF Done:  E(RHF) =  -92.7919534189     A.U. after    9 cycles
 Optimization completed.
    -- Stationary point found.

                         Standard orientation:
 ---------------------------------------------------------------------
 Center     Atomic      Atomic             Coordinates (Angstroms)
 Number     Number       Type             X           Y           Z
 ---------------------------------------------------------------------
      1          7           0        0.080537   -0.566670    0.000000
      2          6           0        0.080537    0.602424    0.000000
      3          1           0       -1.046977    0.352146    0.000000
 ---------------------------------------------------------------------

 The electronic state is 1-A'.
 Alpha  occ. eigenvalues --  -15.65590 -11.28520  -1.30693  -0.71118  -0.61815
 Alpha  occ. eigenvalues --   -0.53009  -0.48904
 Alpha virt. eigenvalues --    0.10836   0.18916   0.23786   0.45996   0.72838
 Alpha virt. eigenvalues --    0.74967   0.77680   0.88062   0.98213   0.99809
 Alpha virt. eigenvalues --    1.01826   1.11416   1.46441   1.74019   1.78871

 Mulliken charges:
               1
     1  N   -0.244623
     2  C   -0.046409
     3  H    0.291031
 Sum of Mulliken charges =   0.00000

 Dipole moment (field-independent basis, Debye):
    X=             -1.4193    Y=              0.2677    Z=              0.0000  Tot=              1.4443
 Quadrupole moment (field-independent basis, Debye-Ang):
   XX=             -9.6130   YY=            -14.2219   ZZ=            -11.9571
   XY=             -0.6444   XZ=              0.0000   YZ=              0.0000

 Normal termination of Gaussian 09 at Mon Sep 26 16:43:05 2016.
