 Gaussian 09, Revision D.01,

 -----------------------------------------------------------------
 # td=(singlet,nstates=10,root=1) b3lyp/aug-cc-pvtz geom=check gfp
 -----------------------------------------------------------------

 -----
 Title
 -----
 Structure from the checkpoint file:  "c2h4f4-td1.chk"
 Charge =  0 Multiplicity = 1

 SCF Done:  E(RB3LYP) =  -554.335977531     A.U. after   10 cycles
 Normal termination of Gaussian 09 at Tue Nov  8 10:15:32 2016.

 ---------------------------------------------------------------
 #td=(singlet,nstates=10,root=2) b3lyp/aug-cc-pvtz geom=allcheck
 ---------------------------------------------------------------
 Structure from the checkpoint file:  "c2h4f4-td2.chk"
 -----
 Title
 -----
 Charge =  0 Multiplicity = 1

 SCF Done:  E(RB3LYP) =  -554.335977531     A.U. after   10 cycles
 Normal termination of Gaussian 09 at Tue Nov  8 10:41:21 2016.

 ---------------------------------------------------------------
 #td=(singlet,nstates=10,root=3) b3lyp/aug-cc-pvtz geom=allcheck
 ---------------------------------------------------------------
 Structure from the checkpoint file:  "c2h4f4-td3.chk"
 -----
 Title
 -----
 Charge =  0 Multiplicity = 1

 SCF Done:  E(RB3LYP) =  -554.335977531     A.U. after   10 cycles
 Normal termination of Gaussian 09 at Tue Nov  8 11:06:16 2016.

 ---------------------------------------------------------------
 #td=(singlet,nstates=10,root=4) b3lyp/aug-cc-pvtz geom=allcheck
 ---------------------------------------------------------------
 Structure from the checkpoint file:  "c2h4f4-td4.chk"
 -----
 Title
 -----
 Charge =  0 Multiplicity = 1

 SCF Done:  E(RB3LYP) =  -554.335977531     A.U. after   10 cycles
 Normal termination of Gaussian 09 at Tue Nov  8 11:31:37 2016.
 Gaussian 09:  ES64L-G09RevD.01 24-Apr-2013

 ---------------------------------------------------------------
 #td=(singlet,nstates=10,root=2) b3lyp/aug-cc-pvtz geom=allcheck
 ---------------------------------------------------------------
 Structure from the checkpoint file:  "c2h4f4-td5.chk"
 -----
 Title
 -----
 Charge =  0 Multiplicity = 1

                         Standard orientation:
 ---------------------------------------------------------------------
 Center     Atomic      Atomic             Coordinates (Angstroms)
 Number     Number       Type             X           Y           Z
 ---------------------------------------------------------------------
      1          6           0       -3.066150    0.516174   -0.001165
      2          1           0       -3.127140    1.080555   -0.922887
      3          1           0       -3.127125    1.083832    0.918544
      4          6           0       -2.927430   -0.801675    0.001181
      5          1           0       -2.869507   -1.369444   -0.918677
      6          1           0       -2.869410   -1.366131    0.923072
      7          6           0        0.930482    0.704100    0.000277
      8          6           0        1.071758   -0.608314   -0.000290
      9          9           0        0.849543    1.426768    1.101289
     10          9           0        0.849555    1.427796   -1.100018
     11          9           0        1.147294   -1.332803    1.100196
     12          9           0        1.147076   -1.331819   -1.101474
 ---------------------------------------------------------------------

 SCF Done:  E(RB3LYP) =  -554.335977531     A.U. after   10 cycles

 Excitation energies and oscillator strengths:

 Excited State   1:      Singlet-A      6.1404 eV  201.91 nm  f=0.0254  <S**2>=0.000
      32 -> 33        -0.29434
      32 -> 34         0.60881
      32 -> 37        -0.17130

 Excited State   2:      Singlet-A      6.2185 eV  199.38 nm  f=0.0015  <S**2>=0.000
      31 -> 33        -0.10766
      32 -> 33         0.62601
      32 -> 34         0.28975
 This state for optimization and/or second-order correction.
 Total Energy, E(TD-HF/TD-KS) =  -554.107452858
 Copying the excited state density for this state as the 1-particle RhoCI density.

 Excited State   3:      Singlet-A      6.4828 eV  191.25 nm  f=0.0002  <S**2>=0.000
      32 -> 36         0.56593
      32 -> 39         0.37051
      32 -> 46        -0.16496

 Excited State   4:      Singlet-A      6.6768 eV  185.69 nm  f=0.0549  <S**2>=0.000
      31 -> 34         0.64306
      31 -> 37         0.13905
      32 -> 37         0.21248

 Excited State   5:      Singlet-A      6.9041 eV  179.58 nm  f=0.0010  <S**2>=0.000
      32 -> 35         0.67802
      32 -> 40         0.13263

 Excited State   6:      Singlet-A      6.9550 eV  178.27 nm  f=0.0125  <S**2>=0.000
      31 -> 34        -0.21991
      32 -> 34         0.17727
      32 -> 37         0.63508

 Excited State   7:      Singlet-A      7.1840 eV  172.58 nm  f=0.0003  <S**2>=0.000
      31 -> 36         0.55173
      32 -> 36         0.28307
      32 -> 39        -0.30770

 Excited State   8:      Singlet-A      7.1994 eV  172.22 nm  f=0.0414  <S**2>=0.000
      31 -> 33         0.43053
      31 -> 35         0.49951
      31 -> 38        -0.15307
      32 -> 38        -0.12153

 Excited State   9:      Singlet-A      7.3479 eV  168.74 nm  f=0.0784  <S**2>=0.000
      31 -> 33        -0.42791
      31 -> 35         0.43950
      31 -> 37        -0.11256
      31 -> 38         0.14999
      31 -> 40        -0.16071
      32 -> 40        -0.18963

 Excited State  10:      Singlet-A      7.3804 eV  167.99 nm  f=0.0001  <S**2>=0.000
      31 -> 36         0.41617
      32 -> 36        -0.30480
      32 -> 39         0.45141
      32 -> 46        -0.12592

 The electronic state is 1-A.
 Alpha  occ. eigenvalues --  -24.75101 -24.75100 -24.75088 -24.75086 -10.36760
 Alpha  occ. eigenvalues --  -10.36661 -10.18059 -10.17960  -1.32331  -1.30949
 Alpha  occ. eigenvalues --   -1.26695  -1.25625  -0.82034  -0.77173  -0.67816
 Alpha  occ. eigenvalues --   -0.63483  -0.62709  -0.58921  -0.58358  -0.57188
 Alpha  occ. eigenvalues --   -0.52925  -0.50254  -0.48105  -0.47915  -0.47437
 Alpha  occ. eigenvalues --   -0.47037  -0.46580  -0.45081  -0.43191  -0.36446
 Alpha  occ. eigenvalues --   -0.28813  -0.27139
 Alpha virt. eigenvalues --   -0.01729  -0.01289   0.00603   0.00712   0.00828
 Alpha virt. eigenvalues --    0.01695   0.02851   0.03248   0.03914   0.05129
 Alpha virt. eigenvalues --    0.05622   0.07216   0.07700   0.07736   0.07831

 Mulliken charges:
               1
     1  C   -0.640679
     2  H    0.318038
     3  H    0.318123
     4  C   -0.637159
     5  H    0.319425
     6  H    0.319279
     7  C    0.599261
     8  C    0.585414
     9  F   -0.295441
    10  F   -0.295282
    11  F   -0.295424
    12  F   -0.295555
 Sum of Mulliken charges =   0.00000

 Dipole moment (field-independent basis, Debye):
    X=             -0.1605    Y=              0.0043    Z=             -0.0001  Tot=              0.1606
 1\1\GINC-TC-NODE164\SP\RB3LYP TD-FC\Aug-CC-pVTZ\C4H4F4\EPKTB\08-Nov-20
 16\0\\#td=(singlet,nstates=10,root=2) b3lyp/aug-cc-pvtz geom=allcheck\
 \Title\\0,1\C,0,-0.0110011707,-0.0006908479,-0.0074338249\H,0,0.017217
 7338,-0.0032348228,1.0747005437\H,0,0.944476881,-0.0026355333,-0.51623
 2753\C,0,-1.1558653132,0.0012868503,-0.6747081781\H,0,-2.1112411914,0.
 0001840391,-0.1656780376\H,0,-1.1837983633,0.0008689429,-1.7568719612\
 C,0,-0.2055936506,3.9939955935,-0.1214388024\C,0,-1.3474739398,3.99907
 67409,-0.7836124474\F,0,0.9760297482,3.9882151778,-0.7086016155\F,0,-0
 .1281943566,3.9880383543,1.1957201346\F,0,-1.4249777018,3.9995893828,-
 2.1010538188\F,0,-2.5294016464,3.9991803325,-0.1964288162\\Version=ES6

 Normal termination of Gaussian 09 at Tue Nov  8 11:56:37 2016.
