 Gaussian 09, Revision D.01,
 Gaussian 09:  ES64L-G09RevD.01 24-Apr-2013

 ----------------------------------------------------------
 # td=(singlet,nstates=50) wb97xd/6-311++g** geom=check gfp
 ----------------------------------------------------------

 -----
 Title
 -----
 Structure from the checkpoint file:  "c2h4-c2f4-wb97xd-pople-td.chk"
 Charge =  0 Multiplicity = 1

                         Standard orientation:
 ---------------------------------------------------------------------
 Center     Atomic      Atomic             Coordinates (Angstroms)
 Number     Number       Type             X           Y           Z
 ---------------------------------------------------------------------
      1          6           0       -2.888670   -0.156268   -0.090155
      2          1           0       -3.262867    0.320467   -0.990453
      3          1           0       -3.134692    0.316807    0.854470
      4          6           0       -2.170408   -1.268330   -0.148472
      5          1           0       -1.942455   -1.749775   -1.093911
      6          1           0       -1.796042   -1.753124    0.747168
      7          6           0        0.482872    0.789707    0.075951
      8          6           0        1.207666   -0.309308    0.006616
      9          9           0       -0.017298    1.252213    1.199353
     10          9           0        0.182701    1.526018   -0.969733
     11          9           0        1.485984   -1.064820    1.044489
     12          9           0        1.720535   -0.765542   -1.116433
 ---------------------------------------------------------------------

 SCF Done:  E(RwB97XD) =  -554.110263196     A.U. after   13 cycles

 Excitation energies and oscillator strengths:

 Excited State   1:      Singlet-A      6.8224 eV  181.73 nm  f=0.0016  <S**2>=0.000
      31 -> 40        -0.15597
      31 -> 47         0.10551
      32 -> 36        -0.27460
      32 -> 37        -0.13449
      32 -> 38         0.11617
      32 -> 40         0.43751
      32 -> 41         0.18721
      32 -> 47        -0.28829
 This state for optimization and/or second-order correction.
 Total Energy, E(TD-HF/TD-KS) =  -553.859544185
 Copying the excited state density for this state as the 1-particle RhoCI density.

 Excited State   2:      Singlet-A      6.8498 eV  181.01 nm  f=0.0647  <S**2>=0.000
      31 -> 37         0.14398
      32 -> 33         0.44359
      32 -> 34        -0.31399
      32 -> 35        -0.15937
      32 -> 36         0.11595
      32 -> 37        -0.30812
      32 -> 40        -0.10411
      32 -> 46        -0.14516

 Excited State   3:      Singlet-A      7.2801 eV  170.31 nm  f=0.0376  <S**2>=0.000
      31 -> 33         0.29948
      31 -> 34         0.11627
      32 -> 33         0.28144
      32 -> 34         0.51103
      32 -> 37        -0.11663

 Excited State   4:      Singlet-A      7.4178 eV  167.14 nm  f=0.0586  <S**2>=0.000
      31 -> 33         0.48015
      32 -> 33         0.14258
      32 -> 34        -0.26967
      32 -> 37         0.37164

 Excited State   5:      Singlet-A      7.7080 eV  160.85 nm  f=0.0921  <S**2>=0.000
      31 -> 34         0.55927
      32 -> 35        -0.31748
      32 -> 37         0.12514
      32 -> 39        -0.14463

 Excited State   6:      Singlet-A      7.9028 eV  156.89 nm  f=0.0064  <S**2>=0.000
      30 -> 34         0.15316
      31 -> 34         0.12649
      31 -> 35         0.13927
      31 -> 36         0.45502
      31 -> 52         0.11038
      32 -> 35         0.20328
      32 -> 36         0.35577

 Excited State   7:      Singlet-A      7.9243 eV  156.46 nm  f=0.0244  <S**2>=0.000
      31 -> 34         0.30470
      31 -> 35         0.23649
      31 -> 36        -0.20223
      32 -> 34        -0.15992
      32 -> 35         0.41882
      32 -> 36        -0.19370
      32 -> 41         0.10131

 Excited State   8:      Singlet-A      8.1371 eV  152.37 nm  f=0.0028  <S**2>=0.000
      30 -> 34         0.62275
      30 -> 37        -0.10197
      31 -> 35        -0.17347
      32 -> 36        -0.10572

 Excited State   9:      Singlet-A      8.1621 eV  151.90 nm  f=0.0403  <S**2>=0.000
      30 -> 34         0.18603
      31 -> 33        -0.15311
      31 -> 34        -0.16774
      31 -> 35         0.45726
      32 -> 33         0.16820
      32 -> 34         0.11930
      32 -> 37         0.15121
      32 -> 39        -0.16842
      32 -> 40         0.13406
      32 -> 41        -0.18446

 Excited State  10:      Singlet-A      8.1863 eV  151.45 nm  f=0.0933  <S**2>=0.000
      31 -> 33        -0.29281
      31 -> 35        -0.11306
      31 -> 37        -0.10558
      32 -> 33         0.31013
      32 -> 37         0.30207
      32 -> 39         0.31077
      32 -> 41         0.11721
      32 -> 42        -0.14050

 Excited State  11:      Singlet-A      8.3970 eV  147.65 nm  f=0.3602  <S**2>=0.000
      31 -> 34         0.10544
      31 -> 35         0.19025
      32 -> 37        -0.12830
      32 -> 39         0.53281
      32 -> 41        -0.32001

 Excited State  12:      Singlet-A      8.5902 eV  144.33 nm  f=0.0037  <S**2>=0.000
      31 -> 36        -0.41222
      32 -> 36         0.41457
      32 -> 38        -0.14495
      32 -> 40         0.12254
      32 -> 46         0.10380
      32 -> 47        -0.25578

 Excited State  13:      Singlet-A      8.7936 eV  140.99 nm  f=0.0510  <S**2>=0.000
      31 -> 35        -0.10203
      31 -> 37        -0.15879
      31 -> 38         0.10125
      31 -> 39         0.59155
      31 -> 41        -0.16352
      32 -> 35         0.13632

 Excited State  14:      Singlet-A      8.9238 eV  138.94 nm  f=0.0275  <S**2>=0.000
      31 -> 35         0.27413
      31 -> 37        -0.13637
      31 -> 39         0.12985
      31 -> 41        -0.13020
      32 -> 33        -0.12280
      32 -> 35        -0.29110
      32 -> 38         0.15930
      32 -> 40        -0.15586
      32 -> 41         0.37185
      32 -> 48        -0.11395

 Excited State  15:      Singlet-A      8.9602 eV  138.37 nm  f=0.0022  <S**2>=0.000
      31 -> 38         0.27859
      31 -> 39        -0.13027
      32 -> 36         0.10851
      32 -> 38         0.56202
      32 -> 39        -0.10624
      32 -> 41        -0.14187

 Excited State  16:      Singlet-A      9.0023 eV  137.72 nm  f=0.0042  <S**2>=0.000
      31 -> 37         0.46380
      31 -> 39         0.19202
      31 -> 41        -0.14913
      31 -> 42         0.18015
      31 -> 43        -0.17123
      32 -> 37         0.18797
      32 -> 42         0.23760
      32 -> 43        -0.12205

 Excited State  17:      Singlet-A      9.2792 eV  133.62 nm  f=0.0038  <S**2>=0.000
      31 -> 40        -0.21076
      31 -> 43         0.35393
      32 -> 40        -0.15403
      32 -> 42         0.33544
      32 -> 43         0.35924

 Excited State  18:      Singlet-A      9.3360 eV  132.80 nm  f=0.0163  <S**2>=0.000
      31 -> 38         0.25776
      31 -> 40         0.35732
      31 -> 41         0.24248
      31 -> 47        -0.15350
      32 -> 40         0.27539
      32 -> 41         0.14511
      32 -> 42         0.17869
      32 -> 44        -0.13036
      32 -> 47         0.12451

 Excited State  19:      Singlet-A      9.3836 eV  132.13 nm  f=0.0015  <S**2>=0.000
      31 -> 36         0.10543
      31 -> 38         0.50716
      31 -> 41        -0.10829
      32 -> 38        -0.20853
      32 -> 40        -0.17679
      32 -> 44        -0.16401
      32 -> 47        -0.18606

 Excited State  20:      Singlet-A      9.4662 eV  130.98 nm  f=0.0447  <S**2>=0.000
      30 -> 33        -0.13941
      31 -> 37        -0.27247
      31 -> 38        -0.15382
      31 -> 40         0.16825
      31 -> 42        -0.13920
      31 -> 43        -0.23290
      31 -> 46        -0.12174
      32 -> 33         0.10619
      32 -> 42         0.38316
      32 -> 43        -0.12808
      32 -> 45         0.14775
      32 -> 47        -0.12106

 Excited State  21:      Singlet-A      9.4850 eV  130.72 nm  f=0.0012  <S**2>=0.000
      30 -> 33         0.64675
      30 -> 34         0.10363
      30 -> 37         0.11308
      30 -> 51        -0.13486

 Excited State  22:      Singlet-A      9.5728 eV  129.52 nm  f=0.0375  <S**2>=0.000
      31 -> 37         0.14033
      31 -> 40         0.38069
      31 -> 41         0.16877
      31 -> 43         0.19005
      32 -> 40        -0.14600
      32 -> 42        -0.19388
      32 -> 46         0.26994
      32 -> 47        -0.28615

 Excited State  23:      Singlet-A      9.6157 eV  128.94 nm  f=0.1011  <S**2>=0.000
      31 -> 37        -0.12291
      31 -> 41         0.21716
      31 -> 42         0.37099
      31 -> 43        -0.15752
      31 -> 45        -0.18438
      32 -> 45        -0.28275
      32 -> 46        -0.18060
      32 -> 47        -0.23611

 Excited State  24:      Singlet-A      9.6683 eV  128.24 nm  f=0.0004  <S**2>=0.000
      29 -> 34         0.63596
      29 -> 37        -0.10548
      29 -> 41        -0.10213

 Excited State  25:      Singlet-A      9.6904 eV  127.95 nm  f=0.0032  <S**2>=0.000
      29 -> 34         0.17839
      31 -> 40        -0.13364
      31 -> 42         0.16749
      31 -> 43         0.11843
      31 -> 46        -0.12437
      32 -> 33         0.12500
      32 -> 43        -0.25797
      32 -> 46         0.41569
      32 -> 47         0.23834

 Excited State  26:      Singlet-A      9.8213 eV  126.24 nm  f=0.0078  <S**2>=0.000
      31 -> 45         0.13687
      31 -> 50        -0.14840
      32 -> 41        -0.20190
      32 -> 45        -0.34555
      32 -> 46         0.10799
      32 -> 49         0.23632
      32 -> 50         0.36081
      32 -> 58        -0.11255

 Excited State  27:      Singlet-A     10.0598 eV  123.25 nm  f=0.0474  <S**2>=0.000
      30 -> 36         0.39046
      31 -> 37        -0.10717
      31 -> 39        -0.14322
      31 -> 40         0.14800
      31 -> 41        -0.32100
      31 -> 42         0.25163
      31 -> 43         0.10110
      31 -> 50        -0.10642
      32 -> 48        -0.10005
      32 -> 50        -0.17968

 Excited State  28:      Singlet-A     10.1002 eV  122.75 nm  f=0.0922  <S**2>=0.000
      30 -> 35         0.66289

 Excited State  29:      Singlet-A     10.2231 eV  121.28 nm  f=0.0312  <S**2>=0.000
      30 -> 36         0.54629
      31 -> 40        -0.12383
      31 -> 41         0.27085
      31 -> 42        -0.18256

 Excited State  30:      Singlet-A     10.2872 eV  120.52 nm  f=0.0008  <S**2>=0.000
      31 -> 38         0.15836
      31 -> 44        -0.12890
      32 -> 38        -0.18744
      32 -> 44         0.62874

 Excited State  31:      Singlet-A     10.3990 eV  119.23 nm  f=0.0230  <S**2>=0.000
      31 -> 43        -0.30585
      32 -> 43         0.36762
      32 -> 46         0.27808
      32 -> 48         0.32076
      32 -> 50        -0.10692

 Excited State  32:      Singlet-A     10.6817 eV  116.07 nm  f=0.0026  <S**2>=0.000
      31 -> 43         0.21322
      31 -> 49         0.10007
      32 -> 43        -0.23661
      32 -> 46        -0.10162
      32 -> 47        -0.10829
      32 -> 48         0.53135
      32 -> 49        -0.10294
      32 -> 50         0.10111

 Excited State  33:      Singlet-A     10.7458 eV  115.38 nm  f=0.0993  <S**2>=0.000
      31 -> 33         0.10865
      31 -> 37        -0.12048
      31 -> 42         0.10355
      31 -> 45         0.17705
      31 -> 46         0.47068
      31 -> 51         0.24050
      32 -> 51         0.26036

 Excited State  34:      Singlet-A     10.8129 eV  114.66 nm  f=0.0004  <S**2>=0.000
      31 -> 42         0.25697
      31 -> 43        -0.10117
      31 -> 50        -0.10275
      32 -> 42        -0.10106
      32 -> 45         0.42993
      32 -> 50         0.28933
      32 -> 51        -0.21535

 Excited State  35:      Singlet-A     10.8997 eV  113.75 nm  f=0.0026  <S**2>=0.000
      31 -> 44        -0.14626
      31 -> 46        -0.10465
      31 -> 48         0.34883
      31 -> 49         0.25625
      31 -> 52         0.13339
      32 -> 49         0.37923
      32 -> 50        -0.19265

 Excited State  36:      Singlet-A     10.9253 eV  113.48 nm  f=0.0051  <S**2>=0.000
      31 -> 36        -0.13712
      31 -> 47         0.34331
      31 -> 51         0.23151
      31 -> 52         0.27699
      31 -> 56         0.12805
      32 -> 47         0.13334
      32 -> 49        -0.12960
      32 -> 50         0.15748
      32 -> 51         0.13503
      32 -> 52         0.26479

 Excited State  37:      Singlet-A     10.9468 eV  113.26 nm  f=0.0010  <S**2>=0.000
      30 -> 37        -0.31311
      30 -> 38         0.10422
      30 -> 39         0.51294
      30 -> 41        -0.17995
      30 -> 42        -0.17513
      30 -> 43         0.12438

 Excited State  38:      Singlet-A     11.0717 eV  111.98 nm  f=0.0020  <S**2>=0.000
      30 -> 37        -0.15768
      30 -> 39        -0.15887
      31 -> 45         0.34632
      31 -> 47         0.12920
      31 -> 51        -0.20087
      31 -> 52         0.16237
      32 -> 50        -0.11885
      32 -> 51        -0.23053
      32 -> 52         0.18549

 Excited State  39:      Singlet-A     11.0785 eV  111.91 nm  f=0.0000  <S**2>=0.000
      30 -> 37         0.41564
      30 -> 39         0.31025
      30 -> 41        -0.19487
      30 -> 42         0.17559
      30 -> 43        -0.21927
      31 -> 45         0.14285

 Excited State  40:      Singlet-A     11.1334 eV  111.36 nm  f=0.0097  <S**2>=0.000
      31 -> 40         0.10378
      31 -> 46        -0.11069
      31 -> 47         0.38928
      31 -> 52        -0.15179
      31 -> 56        -0.38261
      32 -> 47         0.11323
      32 -> 52        -0.14455
      32 -> 56        -0.27531

 Excited State  41:      Singlet-A     11.1778 eV  110.92 nm  f=0.0040  <S**2>=0.000
      30 -> 38        -0.11020
      31 -> 44         0.45621
      31 -> 47        -0.18760
      31 -> 48        -0.10606
      31 -> 49         0.13731
      31 -> 52         0.20800
      31 -> 56        -0.15961
      32 -> 49         0.14260
      32 -> 51         0.16960
      32 -> 52         0.13709

 Excited State  42:      Singlet-A     11.2301 eV  110.40 nm  f=0.0005  <S**2>=0.000
      30 -> 38         0.28553
      31 -> 42        -0.16611
      31 -> 44         0.14353
      31 -> 45        -0.24995
      31 -> 46         0.23254
      31 -> 48         0.21277
      31 -> 53        -0.16674
      31 -> 54        -0.16694
      31 -> 56        -0.11990
      32 -> 51        -0.18174
      32 -> 52         0.10017
      32 -> 53        -0.15360
      32 -> 54        -0.11146

 Excited State  43:      Singlet-A     11.2751 eV  109.96 nm  f=0.0001  <S**2>=0.000
      23 -> 34        -0.28444
      24 -> 34         0.50382
      25 -> 34         0.27608
      30 -> 37        -0.11280

 Excited State  44:      Singlet-A     11.3015 eV  109.71 nm  f=0.0004  <S**2>=0.000
      30 -> 38         0.57692
      31 -> 46        -0.15108
      31 -> 48        -0.12112
      32 -> 51         0.17159

 Excited State  45:      Singlet-A     11.3170 eV  109.56 nm  f=0.0020  <S**2>=0.000
      31 -> 44         0.11822
      31 -> 45         0.15644
      31 -> 46        -0.17510
      31 -> 48         0.35367
      31 -> 49        -0.26200
      31 -> 53        -0.19389
      31 -> 54         0.19151
      31 -> 56        -0.11948
      32 -> 49        -0.17980
      32 -> 53        -0.18765
      32 -> 54         0.14096

 Excited State  46:      Singlet-A     11.3892 eV  108.86 nm  f=0.0017  <S**2>=0.000
      31 -> 42         0.12595
      31 -> 44        -0.14072
      31 -> 45         0.13027
      31 -> 48        -0.11145
      31 -> 50         0.35556
      31 -> 51        -0.19387
      31 -> 53        -0.19544
      31 -> 54        -0.11812
      32 -> 50         0.14520
      32 -> 51         0.17538
      32 -> 53        -0.26897
      32 -> 54        -0.15253
      32 -> 57        -0.11007

 Excited State  47:      Singlet-A     11.4496 eV  108.29 nm  f=0.0010  <S**2>=0.000
      29 -> 33        -0.13539
      30 -> 39         0.16178
      30 -> 40        -0.14677
      30 -> 41         0.17359
      30 -> 42         0.27288
      30 -> 43         0.40041
      30 -> 45        -0.14811
      31 -> 49        -0.16181
      31 -> 50        -0.13045
      31 -> 51        -0.14235

 Excited State  48:      Singlet-A     11.4564 eV  108.22 nm  f=0.0010  <S**2>=0.000
      29 -> 33         0.24045
      30 -> 38         0.11670
      30 -> 40        -0.10174
      30 -> 42         0.15647
      30 -> 43         0.23719
      31 -> 44        -0.10534
      31 -> 45         0.10684
      31 -> 49         0.25671
      31 -> 50         0.19645
      31 -> 51         0.24760
      32 -> 49        -0.13793
      32 -> 51        -0.12572

 Excited State  49:      Singlet-A     11.5626 eV  107.23 nm  f=0.0007  <S**2>=0.000
      29 -> 33         0.31296
      31 -> 44         0.34160
      31 -> 47         0.24218
      31 -> 52        -0.13756
      31 -> 56         0.24178
      32 -> 52        -0.20622
      32 -> 56         0.16366

 Excited State  50:      Singlet-A     11.5834 eV  107.04 nm  f=0.0006  <S**2>=0.000
      29 -> 33         0.50496
      31 -> 44        -0.14661
      31 -> 45        -0.12960
      31 -> 46         0.11977
      31 -> 49        -0.19906
      31 -> 52         0.11191
      31 -> 56        -0.12780
      32 -> 52         0.11151

 The electronic state is 1-A.
 Alpha  occ. eigenvalues --  -24.87460 -24.87313 -24.87310 -24.87304 -10.48049
 Alpha  occ. eigenvalues --  -10.47895 -10.29009 -10.28909  -1.43249  -1.41791
 Alpha  occ. eigenvalues --   -1.37338  -1.36216  -0.92130  -0.87111  -0.77411
 Alpha  occ. eigenvalues --   -0.72979  -0.72108  -0.68072  -0.67401  -0.66606
 Alpha  occ. eigenvalues --   -0.62126  -0.59461  -0.57193  -0.56604  -0.56251
 Alpha  occ. eigenvalues --   -0.55870  -0.55276  -0.53913  -0.51497  -0.44457
 Alpha  occ. eigenvalues --   -0.37069  -0.34760
 Alpha virt. eigenvalues --    0.05008   0.05750   0.06254   0.06564   0.07774
 Alpha virt. eigenvalues --    0.08606   0.09397   0.10290   0.10486   0.12830
 Alpha virt. eigenvalues --    0.13651   0.15126   0.15578   0.16063   0.16409

 Mulliken charges:
               1
     1  C   -0.269564
     2  H    0.146477
     3  H    0.147987
     4  C   -0.323473
     5  H    0.154044
     6  H    0.154140
     7  C    0.058312
     8  C    0.210903
     9  F   -0.065566
    10  F   -0.061778
    11  F   -0.077234
    12  F   -0.074249
 Sum of Mulliken charges =   0.00000

 Dipole moment (field-independent basis, Debye):
    X=             -0.1935    Y=              0.0368    Z=              0.0081  Tot=              0.1971
 Quadrupole moment (field-independent basis, Debye-Ang):
   XX=            -44.8171   YY=            -44.9393   ZZ=            -45.0517
   XY=             -0.1139   XZ=              0.6157   YZ=              0.3984

 Normal termination of Gaussian 09 at Wed Nov 16 19:18:30 2016.
