 Gaussian 09, Revision D.01,
 Gaussian 09:  ES64L-G09RevD.01 24-Apr-2013

 -----------------------------------------------------------
 # td=(singlet,nstates=50) wb97xd/aug-cc-pvtz geom=check gfp
 -----------------------------------------------------------

 -----
 Title
 -----
 Structure from the checkpoint file:  "c2h4-c2f4-wb97xd-aug-td.chk"
 Charge =  0 Multiplicity = 1

                         Standard orientation:
 ---------------------------------------------------------------------
 Center     Atomic      Atomic             Coordinates (Angstroms)
 Number     Number       Type             X           Y           Z
 ---------------------------------------------------------------------
      1          6           0       -2.869759   -0.151991   -0.262085
      2          1           0       -3.097166    0.042983   -1.302044
      3          1           0       -3.220088    0.574305    0.459847
      4          6           0       -2.190473   -1.223894    0.108717
      5          1           0       -1.839047   -1.950296   -0.612958
      6          1           0       -1.961010   -1.417824    1.148765
      7          6           0        0.504074    0.790262    0.096151
      8          6           0        1.190785   -0.325022   -0.044862
      9          9           0        0.087218    1.238743    1.255204
     10          9           0        0.158798    1.557598   -0.908104
     11          9           0        1.523584   -1.100851    0.960058
     12          9           0        1.598127   -0.782746   -1.205062
 ---------------------------------------------------------------------

 SCF Done:  E(RwB97XD) =  -554.165472784     A.U. after   13 cycles

 Excitation energies and oscillator strengths:

 Excited State   1:      Singlet-A      6.6327 eV  186.93 nm  f=0.0443  <S**2>=0.000
      32 -> 33         0.39165
      32 -> 34         0.16444
      32 -> 36         0.39983
      32 -> 37         0.26156
      32 -> 45        -0.11498
      32 -> 47        -0.13448
 This state for optimization and/or second-order correction.
 Total Energy, E(TD-HF/TD-KS) =  -553.921727023
 Copying the excited state density for this state as the 1-particle RhoCI density.

 Excited State   2:      Singlet-A      6.8051 eV  182.19 nm  f=0.0020  <S**2>=0.000
      32 -> 33        -0.11152
      32 -> 35         0.23005
      32 -> 36         0.12476
      32 -> 37        -0.19896
      32 -> 40         0.39765
      32 -> 49        -0.18887
      32 -> 52         0.34645

 Excited State   3:      Singlet-A      7.1381 eV  173.69 nm  f=0.0244  <S**2>=0.000
      31 -> 33        -0.19783
      32 -> 33        -0.25634
      32 -> 35        -0.15068
      32 -> 36         0.45505
      32 -> 37        -0.26434
      32 -> 40        -0.15546

 Excited State   4:      Singlet-A      7.2774 eV  170.37 nm  f=0.0473  <S**2>=0.000
      31 -> 33         0.47988
      31 -> 47        -0.12788
      31 -> 50        -0.11695
      32 -> 33         0.20387
      32 -> 37        -0.37233

 Excited State   5:      Singlet-A      7.5145 eV  164.99 nm  f=0.0483  <S**2>=0.000
      31 -> 36        -0.25319
      31 -> 37         0.12923
      32 -> 34         0.48967
      32 -> 35        -0.10675
      32 -> 36        -0.13748
      32 -> 39        -0.28733
      32 -> 44        -0.11850
      32 -> 53         0.11311

 Excited State   6:      Singlet-A      7.7245 eV  160.51 nm  f=0.0060  <S**2>=0.000
      31 -> 35         0.41194
      31 -> 36        -0.13482
      31 -> 49        -0.19834
      32 -> 35         0.43118
      32 -> 52        -0.20216

 Excited State   7:      Singlet-A      7.7655 eV  159.66 nm  f=0.0995  <S**2>=0.000
      31 -> 33        -0.16905
      31 -> 36         0.49468
      31 -> 37        -0.15983
      31 -> 39         0.15253
      32 -> 33         0.16605
      32 -> 34         0.19704
      32 -> 36        -0.15628
      32 -> 37        -0.10668
      32 -> 41         0.16155

 Excited State   8:      Singlet-A      7.8469 eV  158.00 nm  f=0.0473  <S**2>=0.000
      31 -> 33        -0.30108
      31 -> 34        -0.10979
      31 -> 36        -0.18255
      31 -> 37         0.17882
      31 -> 39        -0.13826
      32 -> 33         0.30489
      32 -> 34        -0.14632
      32 -> 36        -0.10096
      32 -> 37        -0.25283
      32 -> 39         0.14389
      32 -> 41         0.22913

 Excited State   9:      Singlet-A      7.9309 eV  156.33 nm  f=0.0176  <S**2>=0.000
      31 -> 34         0.49679
      31 -> 35        -0.10018
      31 -> 44        -0.16762
      32 -> 39         0.36568

 Excited State  10:      Singlet-A      8.1136 eV  152.81 nm  f=0.0008  <S**2>=0.000
      30 -> 36         0.50853
      30 -> 37        -0.22415
      30 -> 39         0.21604
      30 -> 48        -0.10282
      31 -> 34        -0.10542
      31 -> 35        -0.16106
      32 -> 35         0.19940
      32 -> 52        -0.12734

 Excited State  11:      Singlet-A      8.1718 eV  151.72 nm  f=0.0015  <S**2>=0.000
      30 -> 36         0.26993
      30 -> 37        -0.11920
      30 -> 39         0.11425
      31 -> 34         0.11869
      31 -> 35         0.41593
      31 -> 49        -0.10966
      32 -> 35        -0.27844
      32 -> 38         0.14138
      32 -> 52         0.22361

 Excited State  12:      Singlet-A      8.3548 eV  148.40 nm  f=0.3626  <S**2>=0.000
      31 -> 34        -0.14540
      32 -> 41         0.31183
      32 -> 43         0.55405

 Excited State  13:      Singlet-A      8.4285 eV  147.10 nm  f=0.0288  <S**2>=0.000
      31 -> 34        -0.30766
      31 -> 44         0.10726
      32 -> 33        -0.13426
      32 -> 34         0.28047
      32 -> 35        -0.10829
      32 -> 36        -0.13617
      32 -> 38        -0.14435
      32 -> 39         0.38707
      32 -> 48         0.13995

 Excited State  14:      Singlet-A      8.4698 eV  146.38 nm  f=0.0221  <S**2>=0.000
      31 -> 38         0.11455
      32 -> 38         0.59957
      32 -> 39         0.12958
      32 -> 43        -0.14957
      32 -> 45         0.18115

 Excited State  15:      Singlet-A      8.5835 eV  144.44 nm  f=0.0302  <S**2>=0.000
      31 -> 36         0.14893
      31 -> 37         0.34666
      31 -> 41         0.28758
      31 -> 42         0.18810
      31 -> 45        -0.12449
      32 -> 37         0.14873
      32 -> 41         0.25784
      32 -> 42         0.15240
      32 -> 43        -0.24120

 Excited State  16:      Singlet-A      8.7208 eV  142.17 nm  f=0.0122  <S**2>=0.000
      31 -> 42         0.10527
      31 -> 46         0.11976
      32 -> 37        -0.10070
      32 -> 40        -0.16600
      32 -> 41        -0.20469
      32 -> 42         0.53801
      32 -> 43         0.16147
      32 -> 45        -0.10638

 Excited State  17:      Singlet-A      8.7922 eV  141.02 nm  f=0.0027  <S**2>=0.000
      31 -> 35         0.12894
      32 -> 35        -0.15426
      32 -> 40         0.46888
      32 -> 42         0.16501
      32 -> 44         0.10381
      32 -> 49         0.18716
      32 -> 52        -0.29380

 Excited State  18:      Singlet-A      8.9029 eV  139.26 nm  f=0.0113  <S**2>=0.000
      31 -> 37         0.18273
      31 -> 41         0.21314
      32 -> 33         0.21941
      32 -> 40        -0.13248
      32 -> 41        -0.25737
      32 -> 45         0.17442
      32 -> 47         0.36094
      32 -> 50        -0.16395

 Excited State  19:      Singlet-A      8.9508 eV  138.52 nm  f=0.0020  <S**2>=0.000
      31 -> 38         0.53703
      31 -> 41         0.18255
      31 -> 42        -0.11592
      31 -> 43         0.14256
      31 -> 54        -0.12686
      32 -> 42        -0.10965
      32 -> 45        -0.24750

 Excited State  20:      Singlet-A      9.0435 eV  137.10 nm  f=0.0127  <S**2>=0.000
      31 -> 38        -0.28326
      31 -> 41         0.24224
      31 -> 42        -0.23987
      31 -> 43         0.43968
      32 -> 46        -0.17566

 Excited State  21:      Singlet-A      9.0827 eV  136.51 nm  f=0.0323  <S**2>=0.000
      31 -> 33        -0.12347
      31 -> 36        -0.11400
      31 -> 37        -0.24405
      31 -> 40        -0.10761
      31 -> 42         0.33106
      31 -> 43         0.38974
      31 -> 46         0.11003
      31 -> 50        -0.11570
      32 -> 46         0.20941

 Excited State  22:      Singlet-A      9.2219 eV  134.45 nm  f=0.0436  <S**2>=0.000
      31 -> 37        -0.20166
      31 -> 38         0.16917
      31 -> 39        -0.11286
      31 -> 40         0.20423
      31 -> 42        -0.16300
      31 -> 47         0.10130
      32 -> 34         0.10409
      32 -> 38        -0.11944
      32 -> 41         0.13920
      32 -> 42         0.22018
      32 -> 44         0.23852
      32 -> 45         0.23640
      32 -> 53        -0.16924

 Excited State  23:      Singlet-A      9.2615 eV  133.87 nm  f=0.0447  <S**2>=0.000
      31 -> 37        -0.22665
      31 -> 40         0.31820
      31 -> 41         0.14699
      31 -> 42         0.12822
      31 -> 43        -0.17998
      31 -> 47         0.11847
      31 -> 50        -0.12163
      32 -> 44        -0.20762
      32 -> 46        -0.14014
      32 -> 47         0.17598
      32 -> 53         0.21985
      32 -> 63        -0.10535

 Excited State  24:      Singlet-A      9.2854 eV  133.53 nm  f=0.0325  <S**2>=0.000
      31 -> 37         0.17537
      31 -> 39         0.36443
      31 -> 40         0.41119
      31 -> 43         0.17638
      31 -> 52         0.12843
      32 -> 47        -0.10988
      32 -> 48        -0.13619

 Excited State  25:      Singlet-A      9.3695 eV  132.33 nm  f=0.0010  <S**2>=0.000
      31 -> 38         0.14020
      31 -> 40        -0.12332
      31 -> 41        -0.20006
      31 -> 42        -0.12916
      32 -> 37         0.14711
      32 -> 38        -0.12170
      32 -> 39         0.11482
      32 -> 42         0.15741
      32 -> 44        -0.11583
      32 -> 45         0.27063
      32 -> 49         0.14511
      32 -> 53         0.29006
      32 -> 63        -0.13687

 Excited State  26:      Singlet-A      9.3921 eV  132.01 nm  f=0.0003  <S**2>=0.000
      30 -> 33         0.64380
      30 -> 47        -0.15517
      30 -> 50        -0.16312

 Excited State  27:      Singlet-A      9.5534 eV  129.78 nm  f=0.0144  <S**2>=0.000
      31 -> 36        -0.18673
      31 -> 37        -0.11265
      31 -> 39         0.32141
      31 -> 40        -0.22415
      31 -> 41         0.17310
      31 -> 42        -0.17390
      31 -> 43        -0.13638
      31 -> 48        -0.13042
      32 -> 39         0.11002
      32 -> 44         0.13428
      32 -> 48        -0.31080

 Excited State  28:      Singlet-A      9.6482 eV  128.51 nm  f=0.0008  <S**2>=0.000
      29 -> 36         0.51555
      29 -> 37        -0.22841
      29 -> 39         0.22554
      29 -> 48        -0.11627
      32 -> 44        -0.11475
      32 -> 45         0.12867

 Excited State  29:      Singlet-A      9.6818 eV  128.06 nm  f=0.0079  <S**2>=0.000
      29 -> 36         0.22256
      32 -> 38         0.10204
      32 -> 44         0.18120
      32 -> 45        -0.26992
      32 -> 46         0.31862
      32 -> 47         0.18740
      32 -> 49         0.14242
      32 -> 53         0.10137
      32 -> 57        -0.10248

 Excited State  30:      Singlet-A      9.7614 eV  127.01 nm  f=0.0072  <S**2>=0.000
      31 -> 35         0.12206
      31 -> 36        -0.10258
      31 -> 39         0.23934
      31 -> 49         0.23445
      32 -> 35         0.10374
      32 -> 48         0.39289
      32 -> 49         0.18432
      32 -> 51         0.20777
      32 -> 52         0.11590
      32 -> 53        -0.15590

 Excited State  31:      Singlet-A      9.7968 eV  126.56 nm  f=0.0203  <S**2>=0.000
      31 -> 33         0.13980
      31 -> 35        -0.14025
      31 -> 39         0.12333
      31 -> 45         0.17066
      31 -> 47         0.25905
      31 -> 49        -0.20859
      31 -> 50         0.16547
      32 -> 44        -0.12780
      32 -> 47         0.19739
      32 -> 48         0.12395
      32 -> 49        -0.25868
      32 -> 50         0.22338

 Excited State  32:      Singlet-A      9.8350 eV  126.06 nm  f=0.0003  <S**2>=0.000
      31 -> 34         0.17168
      31 -> 42         0.15863
      31 -> 44         0.33248
      32 -> 42        -0.10004
      32 -> 44         0.30804
      32 -> 46        -0.29046
      32 -> 50         0.24749
      32 -> 55         0.11059

 Excited State  33:      Singlet-A      9.8749 eV  125.55 nm  f=0.0137  <S**2>=0.000
      31 -> 33         0.11271
      31 -> 35         0.12297
      31 -> 42         0.18386
      31 -> 47         0.30431
      31 -> 48         0.10502
      31 -> 49         0.21565
      32 -> 41        -0.10162
      32 -> 45         0.17503
      32 -> 48        -0.24183
      32 -> 49         0.18762
      32 -> 50         0.19761

 Excited State  34:      Singlet-A      9.9581 eV  124.51 nm  f=0.0719  <S**2>=0.000
      30 -> 34         0.63680
      30 -> 44        -0.22796
      30 -> 55        -0.10010

 Excited State  35:      Singlet-A      9.9933 eV  124.07 nm  f=0.0382  <S**2>=0.000
      30 -> 35         0.60473
      30 -> 49        -0.20738
      31 -> 39         0.10663
      32 -> 46        -0.11557

 Excited State  36:      Singlet-A     10.0156 eV  123.79 nm  f=0.0036  <S**2>=0.000
      30 -> 35         0.18926
      31 -> 41         0.23433
      31 -> 43        -0.11742
      31 -> 49        -0.15515
      32 -> 41        -0.15963
      32 -> 45         0.17511
      32 -> 46         0.31826
      32 -> 47        -0.22641
      32 -> 48         0.18229
      32 -> 53         0.18741

 Excited State  37:      Singlet-A     10.1134 eV  122.59 nm  f=0.0075  <S**2>=0.000
      31 -> 34         0.14223
      31 -> 44         0.39653
      31 -> 47         0.20369
      31 -> 50         0.12128
      32 -> 44        -0.12772
      32 -> 50        -0.38472
      32 -> 57         0.11543

 Excited State  38:      Singlet-A     10.2411 eV  121.07 nm  f=0.0105  <S**2>=0.000
      31 -> 35        -0.12239
      31 -> 44        -0.14810
      31 -> 46         0.12450
      31 -> 48        -0.15720
      31 -> 49        -0.29120
      32 -> 48        -0.15922
      32 -> 49         0.22660
      32 -> 51         0.33936
      32 -> 54        -0.10962
      32 -> 56         0.19827
      32 -> 58         0.10155

 Excited State  39:      Singlet-A     10.3387 eV  119.92 nm  f=0.0101  <S**2>=0.000
      31 -> 44        -0.24229
      31 -> 45         0.14767
      31 -> 47         0.21610
      31 -> 48         0.18119
      31 -> 51        -0.17536
      32 -> 44         0.26776
      32 -> 46        -0.14731
      32 -> 47        -0.11316
      32 -> 48         0.11641
      32 -> 50        -0.25455
      32 -> 53         0.16206

 Excited State  40:      Singlet-A     10.4322 eV  118.85 nm  f=0.0009  <S**2>=0.000
      31 -> 44         0.13394
      31 -> 46        -0.16202
      31 -> 48         0.18990
      31 -> 49        -0.24768
      31 -> 51        -0.20955
      31 -> 52        -0.17741
      32 -> 49         0.28105
      32 -> 51        -0.25261
      32 -> 52         0.10411
      32 -> 53        -0.14281

 Excited State  41:      Singlet-A     10.5267 eV  117.78 nm  f=0.0379  <S**2>=0.000
      31 -> 37        -0.15328
      31 -> 41         0.10029
      31 -> 47        -0.16218
      31 -> 48         0.23808
      31 -> 50         0.43809
      31 -> 52         0.17850
      31 -> 56         0.17633
      32 -> 56         0.14064

 Excited State  42:      Singlet-A     10.6351 eV  116.58 nm  f=0.0072  <S**2>=0.000
      31 -> 41         0.18188
      31 -> 45         0.50783
      31 -> 46         0.12173
      31 -> 47        -0.27279
      31 -> 52        -0.14336

 Excited State  43:      Singlet-A     10.6572 eV  116.34 nm  f=0.0109  <S**2>=0.000
      31 -> 42        -0.18168
      31 -> 45         0.10161
      31 -> 46         0.35174
      31 -> 48         0.29489
      31 -> 49        -0.15930
      31 -> 50        -0.23054
      31 -> 52         0.18204
      31 -> 56         0.13396
      32 -> 57        -0.10317

 Excited State  44:      Singlet-A     10.6878 eV  116.01 nm  f=0.0001  <S**2>=0.000
      30 -> 36         0.16445
      30 -> 37         0.44026
      30 -> 41         0.39339
      30 -> 42         0.20412
      30 -> 45        -0.15128

 Excited State  45:      Singlet-A     10.6927 eV  115.95 nm  f=0.0040  <S**2>=0.000
      31 -> 45        -0.20796
      31 -> 46         0.39326
      31 -> 48        -0.18280
      31 -> 50         0.14291
      31 -> 56        -0.12513
      31 -> 58         0.12574
      32 -> 49         0.11199
      32 -> 51        -0.22581
      32 -> 56        -0.17721

 Excited State  46:      Singlet-A     10.7453 eV  115.38 nm  f=0.0077  <S**2>=0.000
      31 -> 40        -0.14039
      31 -> 46        -0.16588
      31 -> 48        -0.21961
      31 -> 49        -0.15744
      31 -> 51         0.22093
      31 -> 52         0.28255
      32 -> 47        -0.11474
      32 -> 51        -0.21279
      32 -> 52         0.17637
      32 -> 54         0.13069
      32 -> 55        -0.11037
      32 -> 56        -0.11978
      32 -> 57        -0.13152

 Excited State  47:      Singlet-A     10.8890 eV  113.86 nm  f=0.0002  <S**2>=0.000
      31 -> 38         0.11183
      31 -> 54         0.31827
      32 -> 51         0.14541
      32 -> 54         0.50020
      32 -> 58         0.11717

 Excited State  48:      Singlet-A     10.9122 eV  113.62 nm  f=0.0084  <S**2>=0.000
      30 -> 38        -0.17971
      31 -> 40        -0.10092
      31 -> 44        -0.12903
      31 -> 46        -0.10769
      31 -> 52         0.11107
      31 -> 53        -0.27905
      31 -> 55         0.19816
      32 -> 53        -0.18879
      32 -> 55         0.35960
      32 -> 57         0.23335

 Excited State  49:      Singlet-A     10.9588 eV  113.14 nm  f=0.0170  <S**2>=0.000
      30 -> 38        -0.23762
      31 -> 48        -0.10031
      31 -> 50        -0.10914
      31 -> 55        -0.16440
      32 -> 47         0.20668
      32 -> 51        -0.13044
      32 -> 55        -0.25243
      32 -> 56         0.19569
      32 -> 57         0.34497

 Excited State  50:      Singlet-A     10.9811 eV  112.91 nm  f=0.0073  <S**2>=0.000
      30 -> 38         0.58687
      30 -> 54        -0.12481
      32 -> 47         0.10783
      32 -> 57         0.23612

 The electronic state is 1-A.
 Alpha  occ. eigenvalues --  -24.87271 -24.87257 -24.87218 -24.87202 -10.47310
 Alpha  occ. eigenvalues --  -10.47156 -10.29031 -10.28918  -1.42557  -1.41106
 Alpha  occ. eigenvalues --   -1.36671  -1.35542  -0.91267  -0.86967  -0.76781
 Alpha  occ. eigenvalues --   -0.72322  -0.71462  -0.67942  -0.66774  -0.66117
 Alpha  occ. eigenvalues --   -0.61646  -0.58841  -0.56812  -0.56344  -0.55774
 Alpha  occ. eigenvalues --   -0.55368  -0.54585  -0.53333  -0.51303  -0.44312
 Alpha  occ. eigenvalues --   -0.36918  -0.34038
 Alpha virt. eigenvalues --    0.03619   0.04377   0.04576   0.05636   0.06145
 Alpha virt. eigenvalues --    0.06355   0.07466   0.08980   0.09721   0.10082
 Alpha virt. eigenvalues --    0.10618   0.11809   0.11974   0.12439   0.12707

 Mulliken charges:
               1
     1  C   -0.750233
     2  H    0.331646
     3  H    0.381302
     4  C   -0.728229
     5  H    0.389982
     6  H    0.361427
     7  C    0.668673
     8  C    0.651417
     9  F   -0.337749
    10  F   -0.327244
    11  F   -0.325689
    12  F   -0.315304
 Sum of Mulliken charges =   0.00000

 Dipole moment (field-independent basis, Debye):
    X=             -0.1829    Y=              0.0274    Z=             -0.0156  Tot=              0.1856
 Quadrupole moment (field-independent basis, Debye-Ang):
   XX=            -44.4353   YY=            -44.3511   ZZ=            -44.4433
   XY=             -0.2166   XZ=              0.5264   YZ=              0.2935

 Normal termination of Gaussian 09 at Thu Nov 17 13:39:13 2016.
