 Gaussian 09, Revision D.01,
 Gaussian 09:  ES64L-G09RevD.01 24-Apr-2013

 -----------------------------------------------------
 # opt freq=raman wb97xd/aug-cc-pvtz geom=connectivity
 -----------------------------------------------------

 -----
 Title
 -----
 Symbolic Z-matrix:
 Charge =  0 Multiplicity = 1

 SCF Done:  E(RwB97XD) =  -554.150110492     A.U. after   11 cycles
 SCF Done:  E(RwB97XD) =  -554.163685162     A.U. after    9 cycles
 SCF Done:  E(RwB97XD) =  -554.164258143     A.U. after    9 cycles
 SCF Done:  E(RwB97XD) =  -554.164336645     A.U. after    8 cycles
 SCF Done:  E(RwB97XD) =  -554.164486702     A.U. after    8 cycles
 SCF Done:  E(RwB97XD) =  -554.164705087     A.U. after    9 cycles
 SCF Done:  E(RwB97XD) =  -554.164701289     A.U. after   10 cycles
 SCF Done:  E(RwB97XD) =  -554.164881192     A.U. after   10 cycles
 SCF Done:  E(RwB97XD) =  -554.164848525     A.U. after    7 cycles
 SCF Done:  E(RwB97XD) =  -554.164990502     A.U. after    8 cycles
 SCF Done:  E(RwB97XD) =  -554.165434864     A.U. after    9 cycles
 SCF Done:  E(RwB97XD) =  -554.165457502     A.U. after   10 cycles
 SCF Done:  E(RwB97XD) =  -554.165463583     A.U. after    9 cycles
 SCF Done:  E(RwB97XD) =  -554.165466735     A.U. after   10 cycles
 SCF Done:  E(RwB97XD) =  -554.165469895     A.U. after    9 cycles
 SCF Done:  E(RwB97XD) =  -554.165471170     A.U. after    9 cycles
 SCF Done:  E(RwB97XD) =  -554.165472347     A.U. after    9 cycles
 SCF Done:  E(RwB97XD) =  -554.165472677     A.U. after    7 cycles
 SCF Done:  E(RwB97XD) =  -554.165472785     A.U. after    7 cycles
 Optimization completed.
    -- Stationary point found.
 Normal termination of Gaussian 09 at Thu Nov 17 02:50:55 2016.

 ----------------------------------------------------------------------
 #N Geom=AllCheck Guess=TCheck SCRF=Check GenChk RwB97XD/Aug-CC-pVTZ Fr
 eq
 ----------------------------------------------------------------------

 Structure from the checkpoint file:  "c2h4-c2f4-wb97xd-aug.chk"
 -----
 Title
 -----
 Charge =  0 Multiplicity = 1

                         Standard orientation:
 ---------------------------------------------------------------------
 Center     Atomic      Atomic             Coordinates (Angstroms)
 Number     Number       Type             X           Y           Z
 ---------------------------------------------------------------------
      1          6           0       -2.869759   -0.151991   -0.262085
      2          1           0       -3.097166    0.042983   -1.302044
      3          1           0       -3.220088    0.574305    0.459847
      4          6           0       -2.190473   -1.223894    0.108717
      5          1           0       -1.839047   -1.950296   -0.612958
      6          1           0       -1.961010   -1.417824    1.148765
      7          6           0        0.504074    0.790262    0.096151
      8          6           0        1.190785   -0.325022   -0.044862
      9          9           0        0.087218    1.238743    1.255204
     10          9           0        0.158798    1.557598   -0.908104
     11          9           0        1.523584   -1.100851    0.960058
     12          9           0        1.598127   -0.782746   -1.205062
 ---------------------------------------------------------------------

 SCF Done:  E(RwB97XD) =  -554.165472785     A.U. after    1 cycles

 The electronic state is 1-A.
 Alpha  occ. eigenvalues --  -24.87271 -24.87257 -24.87218 -24.87202 -10.47310
 Alpha  occ. eigenvalues --  -10.47156 -10.29031 -10.28918  -1.42557  -1.41106
 Alpha  occ. eigenvalues --   -1.36671  -1.35542  -0.91267  -0.86967  -0.76781
 Alpha  occ. eigenvalues --   -0.72322  -0.71462  -0.67942  -0.66774  -0.66117
 Alpha  occ. eigenvalues --   -0.61646  -0.58841  -0.56812  -0.56344  -0.55774
 Alpha  occ. eigenvalues --   -0.55368  -0.54585  -0.53333  -0.51303  -0.44312
 Alpha  occ. eigenvalues --   -0.36918  -0.34038
 Alpha virt. eigenvalues --    0.03619   0.04377   0.04576   0.05636   0.06145
 Alpha virt. eigenvalues --    0.06355   0.07466   0.08980   0.09721   0.10082
 Alpha virt. eigenvalues --    0.10618   0.11809   0.11974   0.12439   0.12707

 Mulliken charges:
               1
     1  C   -0.750232
     2  H    0.331646
     3  H    0.381303
     4  C   -0.728229
     5  H    0.389982
     6  H    0.361426
     7  C    0.668672
     8  C    0.651417
     9  F   -0.337749
    10  F   -0.327244
    11  F   -0.325689
    12  F   -0.315304
 Sum of Mulliken charges =   0.00000

 Dipole moment (field-independent basis, Debye):
    X=             -0.1829    Y=              0.0274    Z=             -0.0156  Tot=              0.1856
 Quadrupole moment (field-independent basis, Debye-Ang):
   XX=            -44.4353   YY=            -44.3511   ZZ=            -44.4433
   XY=             -0.2166   XZ=              0.5264   YZ=              0.2935

  Exact polarizability:  55.275 -10.066  60.464   0.612  -1.453  51.913
 Approx polarizability:  54.551 -13.408  67.376   0.645  -2.009  57.207

                      1                      2                      3
                      A                      A                      A
 Frequencies --     28.4910                32.4469                65.1430
 Red. masses --      9.7225                10.8946                 2.5462
 Frc consts  --      0.0046                 0.0068                 0.0064
 IR Inten    --      0.0144                 0.0183                 0.0558
 Raman Activ --      0.4675                 0.3436                 3.9591

                      4                      5                      6
                      A                      A                      A
 Frequencies --     72.1329                84.7539               185.5084
 Red. masses --      5.2864                 2.1033                 1.0406
 Frc consts  --      0.0162                 0.0089                 0.0211
 IR Inten    --      0.0281                 0.0106                 0.4800
 Raman Activ --      0.5328                 1.6022                 1.0649

                      7                      8                      9
                      A                      A                      A
 Frequencies --    206.3727               216.4839               406.1882
 Red. masses --     17.9166                15.4924                18.9221
 Frc consts  --      0.4496                 0.4278                 1.8394
 IR Inten    --      0.0308                 3.5200                 0.0129
 Raman Activ --      0.0133                 0.0340                 1.7685

                     10                     11                     12
                      A                      A                      A
 Frequencies --    444.5834               563.0153               565.1772
 Red. masses --     13.0901                17.3814                17.3355
 Frc consts  --      1.5244                 3.2462                 3.2625
 IR Inten    --      3.4574                 0.0012                 1.9148
 Raman Activ --      0.1597                 1.6548                 0.3166

                     13                     14                     15
                      A                      A                      A
 Frequencies --    579.6968               813.0619               860.2649
 Red. masses --     12.3499                18.5881                 1.0422
 Frc consts  --      2.4452                 7.2399                 0.4544
 IR Inten    --      0.8661                 0.0270                 0.0458
 Raman Activ --     12.2703                10.8452                 0.0079

                     16                     17                     18
                      A                      A                      A
 Frequencies --   1009.0297              1019.3929              1085.7891
 Red. masses --      1.1632                 1.5017                 1.0081
 Frc consts  --      0.6978                 0.9194                 0.7002
 IR Inten    --    110.9899                 0.6913                 0.1063
 Raman Activ --      0.0538                 3.7537                 0.0028

                     19                     20                     21
                      A                      A                      A
 Frequencies --   1210.0037              1260.9210              1361.8933
 Red. masses --     13.9662                 1.5098                13.4159
 Frc consts  --     12.0476                 1.4143                14.6608
 IR Inten    --    347.7998                 0.1079               349.3792
 Raman Activ --      0.0028                 0.1048                 0.0557

                     22                     23                     24
                      A                      A                      A
 Frequencies --   1371.1981              1397.3974              1492.1041
 Red. masses --     12.5091                 1.2236                 1.1124
 Frc consts  --     13.8573                 1.4077                 1.4591
 IR Inten    --     36.7131                 0.0106                11.4430
 Raman Activ --      0.3808                35.1015                 0.0407

                     25                     26                     27
                      A                      A                      A
 Frequencies --   1716.9362              1953.0782              3145.7961
 Red. masses --      3.1599                12.1905                 1.0477
 Frc consts  --      5.4883                27.3975                 6.1085
 IR Inten    --      0.0025                 0.3905                11.9814
 Raman Activ --     33.2263                18.5162                 0.9582

                     28                     29                     30
                      A                      A                      A
 Frequencies --   3164.3802              3225.4272              3251.8099
 Red. masses --      1.0745                 1.1154                 1.1181
 Frc consts  --      6.3393                 6.8370                 6.9662
 IR Inten    --      0.1189                 0.0575                14.2858
 Raman Activ --    175.9351                95.1822                 1.4554

 - Thermochemistry -
 -------------------
 Temperature   298.150 Kelvin.  Pressure   1.00000 Atm.
 Atom     1 has atomic number  6 and mass  12.00000

 Molecular mass:   128.02491 amu.
 Principal axes and moments of inertia in atomic units:
                           1         2         3
     Eigenvalues --   850.183221398.046191566.79619
           X            0.99882   0.04768   0.00963
           Y           -0.04765   0.99886  -0.00354
           Z           -0.00979   0.00307   0.99995
 This molecule is an asymmetric top.
 Rotational symmetry number  1.
 Warning -- assumption of classical behavior for rotation
           may cause significant error
 Rotational temperatures (Kelvin)      0.10188     0.06195     0.05528
 Rotational constants (GHZ):           2.12277     1.29090     1.15187
 Zero-point vibrational energy     196118.6 (Joules/Mol)
                                   46.87348 (Kcal/Mol)
 Warning -- explicit consideration of  13 degrees of freedom as
           vibrations may cause significant error
 Vibrational temperatures:     40.99    46.68    93.73   103.78   121.94
          (Kelvin)            266.90   296.92   311.47   584.41   639.66
                              810.05   813.16   834.05  1169.81  1237.73
                             1451.77  1466.68  1562.21  1740.92  1814.18
                             1959.46  1972.85  2010.54  2146.80  2470.29
                             2810.04  4526.09  4552.83  4640.66  4678.62

 Zero-point correction=                           0.074698 (Hartree/Particle)
 Thermal correction to Energy=                    0.084710
 Thermal correction to Enthalpy=                  0.085655
 Thermal correction to Gibbs Free Energy=         0.036432
 Sum of electronic and zero-point Energies=           -554.090775
 Sum of electronic and thermal Energies=              -554.080762
 Sum of electronic and thermal Enthalpies=            -554.079818
 Sum of electronic and thermal Free Energies=         -554.129041

                     E (Thermal)             CV                S
                      KCal/Mol        Cal/Mol-Kelvin    Cal/Mol-Kelvin
 Total                   53.157             30.495            103.598
 Electronic               0.000              0.000              0.000
 Translational            0.889              2.981             40.454
 Rotational               0.889              2.981             29.011
 Vibrational             51.379             24.533             34.132
 Vibration     1          0.593              1.984              5.932
 Vibration     2          0.594              1.983              5.674
 Vibration     3          0.597              1.971              4.295
 Vibration     4          0.598              1.967              4.094
 Vibration     5          0.601              1.960              3.778
 Vibration     6          0.632              1.860              2.272
 Vibration     7          0.641              1.831              2.076
 Vibration     8          0.645              1.816              1.988
 Vibration     9          0.771              1.457              0.940
 Vibration    10          0.804              1.373              0.812
 Vibration    11          0.919              1.111              0.518
 Vibration    12          0.921              1.107              0.514
 Vibration    13          0.936              1.075              0.486

 Optimization completed.
    -- Stationary point found.
 Normal termination of Gaussian 09 at Thu Nov 17 04:08:47 2016.
