 Gaussian 09, Revision D.01,
 Gaussian 09:  ES64L-G09RevD.01 24-Apr-2013

 --------------------------------------------------------
 # opt freq=raman cam-b3lyp/aug-cc-pvtz geom=connectivity
 --------------------------------------------------------

 -----
 Title
 -----
 Symbolic Z-matrix:
 Charge =  0 Multiplicity = 1

 SCF Done:  E(RCAM-B3LYP) =  -554.144397213     A.U. after   11 cycles
 SCF Done:  E(RCAM-B3LYP) =  -554.157844867     A.U. after    9 cycles
 SCF Done:  E(RCAM-B3LYP) =  -554.158436817     A.U. after    8 cycles
 SCF Done:  E(RCAM-B3LYP) =  -554.158472848     A.U. after    7 cycles
 SCF Done:  E(RCAM-B3LYP) =  -554.158482435     A.U. after    7 cycles
 SCF Done:  E(RCAM-B3LYP) =  -554.158490344     A.U. after    7 cycles
 SCF Done:  E(RCAM-B3LYP) =  -554.158514891     A.U. after    8 cycles
 SCF Done:  E(RCAM-B3LYP) =  -554.158562082     A.U. after    8 cycles
 SCF Done:  E(RCAM-B3LYP) =  -554.158570985     A.U. after    8 cycles
 SCF Done:  E(RCAM-B3LYP) =  -554.158580468     A.U. after    8 cycles
 SCF Done:  E(RCAM-B3LYP) =  -554.158702730     A.U. after    7 cycles
 SCF Done:  E(RCAM-B3LYP) =  -554.158703030     A.U. after    7 cycles
 SCF Done:  E(RCAM-B3LYP) =  -554.158703954     A.U. after    7 cycles
 SCF Done:  E(RCAM-B3LYP) =  -554.158707342     A.U. after    8 cycles
 SCF Done:  E(RCAM-B3LYP) =  -554.158711992     A.U. after    9 cycles
 SCF Done:  E(RCAM-B3LYP) =  -554.158710152     A.U. after    9 cycles
 SCF Done:  E(RCAM-B3LYP) =  -554.158712588     A.U. after    9 cycles
 SCF Done:  E(RCAM-B3LYP) =  -554.158712631     A.U. after    6 cycles
 SCF Done:  E(RCAM-B3LYP) =  -554.158712609     A.U. after    6 cycles
 Optimization completed.
    -- Stationary point found.
 Normal termination of Gaussian 09 at Wed Nov 16 21:36:24 2016.

 ----------------------------------------------------------------------
 #N Geom=AllCheck Guess=TCheck SCRF=Check GenChk RCAM-B3LYP/Aug-CC-pVTZ
  Freq
 ----------------------------------------------------------------------

 Structure from the checkpoint file:  "c2h4-c2f4-camb3lyp-aug.chk"
 -----
 Title
 -----
 Charge =  0 Multiplicity = 1

                         Standard orientation:
 ---------------------------------------------------------------------
 Center     Atomic      Atomic             Coordinates (Angstroms)
 Number     Number       Type             X           Y           Z
 ---------------------------------------------------------------------
      1          6           0       -2.988286   -0.036218    0.003267
      2          1           0       -3.189314    0.499072   -0.914893
      3          1           0       -3.185235    0.491432    0.926716
      4          6           0       -2.525698   -1.272218   -0.002894
      5          1           0       -2.331450   -1.800893   -0.926525
      6          1           0       -2.327376   -1.808544    0.915448
      7          6           0        0.540074    0.755387   -0.000912
      8          6           0        1.299532   -0.316658    0.000767
      9          9           0        0.121386    1.347087    1.093629
     10          9           0        0.122957    1.344803   -1.097281
     11          9           0        1.714716   -0.909424    1.097753
     12          9           0        1.716458   -0.911670   -1.094337
 ---------------------------------------------------------------------

 SCF Done:  E(RCAM-B3LYP) =  -554.158712609     A.U. after    1 cycles

 The electronic state is 1-A.
 Alpha  occ. eigenvalues --  -24.82366 -24.82366 -24.82312 -24.82311 -10.44081
 Alpha  occ. eigenvalues --  -10.43948 -10.25113 -10.25005  -1.40721  -1.39224
 Alpha  occ. eigenvalues --   -1.34796  -1.33619  -0.90056  -0.85301  -0.75258
 Alpha  occ. eigenvalues --   -0.71045  -0.70052  -0.66140  -0.65364  -0.64982
 Alpha  occ. eigenvalues --   -0.60356  -0.57557  -0.55364  -0.54880  -0.54481
 Alpha  occ. eigenvalues --   -0.54139  -0.53450  -0.52029  -0.49741  -0.42524
 Alpha  occ. eigenvalues --   -0.34879  -0.33024
 Alpha virt. eigenvalues --    0.01098   0.02359   0.02661   0.02939   0.03292
 Alpha virt. eigenvalues --    0.05022   0.05355   0.05853   0.06923   0.07624
 Alpha virt. eigenvalues --    0.07755   0.09446   0.09572   0.09808   0.10005

 Mulliken charges:
               1
     1  C   -0.660045
     2  H    0.326217
     3  H    0.325580
     4  C   -0.655580
     5  H    0.328074
     6  H    0.328751
     7  C    0.611911
     8  C    0.532591
     9  F   -0.298394
    10  F   -0.298459
    11  F   -0.270334
    12  F   -0.270310
 Sum of Mulliken charges =   0.00000

 Dipole moment (field-independent basis, Debye):
    X=             -0.1941    Y=              0.0103    Z=              0.0000  Tot=              0.1944
 Quadrupole moment (field-independent basis, Debye-Ang):
   XX=            -45.5920   YY=            -44.4235   ZZ=            -45.2895
   XY=              0.3837   XZ=              0.0016   YZ=              0.0011

  Exact polarizability:  54.221  -9.950  62.335  -0.007   0.031  51.636
 Approx polarizability:  57.967 -13.906  75.325  -0.012   0.045  60.573

 ******    1 imaginary frequencies (negative Signs) ******

                      1                      2                      3
                      A                      A                      A
 Frequencies --     -7.7364                19.1086                19.9044
 Red. masses --      2.0918                 6.7526                 6.5556
 Frc consts  --      0.0001                 0.0015                 0.0015
 IR Inten    --      0.0003                 0.0041                 0.0006
 Raman Activ --      1.4904                 0.0843                 0.0990

                      4                      5                      6
                      A                      A                      A
 Frequencies --     35.2334                48.3542                64.7484
 Red. masses --      3.8206                 3.6421                 1.0930
 Frc consts  --      0.0028                 0.0050                 0.0027
 IR Inten    --      0.0810                 0.0137                 0.2144
 Raman Activ --      3.4917                 1.7424                 1.2637

                      7                      8                      9
                      A                      A                      A
 Frequencies --    204.9118               210.0922               401.3795
 Red. masses --     18.9158                17.9995                18.9394
 Frc consts  --      0.4680                 0.4681                 1.7977
 IR Inten    --      0.0011                 4.1859                 0.0060
 Raman Activ --      0.0027                 0.0067                 1.8180

                     10                     11                     12
                      A                      A                      A
 Frequencies --    431.4749               560.1252               560.3992
 Red. masses --     13.1516                17.4264                17.3693
 Frc consts  --      1.4426                 3.2213                 3.2139
 IR Inten    --      5.1893                 2.3062                 0.0002
 Raman Activ --      0.0531                 0.0438                 1.6784

                     13                     14                     15
                      A                      A                      A
 Frequencies --    589.1114               810.8063               841.2365
 Red. masses --     12.3106                18.6025                 1.0424
 Frc consts  --      2.5172                 7.2054                 0.4346
 IR Inten    --      0.5195                 0.0200                 0.0495
 Raman Activ --     13.4008                11.0342                 0.0040

                     16                     17                     18
                      A                      A                      A
 Frequencies --    995.8763              1014.6498              1074.3308
 Red. masses --      1.1618                 1.5171                 1.0079
 Frc consts  --      0.6789                 0.9202                 0.6854
 IR Inten    --    114.8132                 0.4753                 0.0003
 Raman Activ --      0.0326                 3.7900                 0.0008

                     19                     20                     21
                      A                      A                      A
 Frequencies --   1206.0760              1253.9638              1354.0719
 Red. masses --     13.9758                 1.5252                13.4730
 Frc consts  --     11.9778                 1.4130                14.5545
 IR Inten    --    355.7505                 0.0004               324.1571
 Raman Activ --      0.0017                 0.1121                 0.0330

                     22                     23                     24
                      A                      A                      A
 Frequencies --   1359.7298              1390.4681              1485.1287
 Red. masses --     13.0524                 1.1942                 1.1120
 Frc consts  --     14.2183                 1.3603                 1.4451
 IR Inten    --     64.8291                 0.0333                11.5202
 Raman Activ --      0.1119                34.3020                 0.0287

                     25                     26                     27
                      A                      A                      A
 Frequencies --   1717.0162              1955.1123              3146.8613
 Red. masses --      3.3410                12.1840                 1.0478
 Frc consts  --      5.8034                27.4399                 6.1133
 IR Inten    --      0.0915                 0.2902                 9.5485
 Raman Activ --     34.4809                18.3299                 0.9304

                     28                     29                     30
                      A                      A                      A
 Frequencies --   3163.6154              3220.7083              3246.6533
 Red. masses --      1.0739                 1.1155                 1.1180
 Frc consts  --      6.3326                 6.8177                 6.9435
 IR Inten    --      0.0362                 0.0681                11.9355
 Raman Activ --    177.6031                97.0658                 0.7015

 - Thermochemistry -
 -------------------
 Temperature   298.150 Kelvin.  Pressure   1.00000 Atm.
 Atom     1 has atomic number  6 and mass  12.00000

 Molecular mass:   128.02491 amu.
 Principal axes and moments of inertia in atomic units:
                           1         2         3
     Eigenvalues --   818.223721587.729471729.86140
           X            0.99924   0.03900  -0.00001
           Y           -0.03900   0.99924   0.00036
           Z            0.00003  -0.00036   1.00000
 This molecule is an asymmetric top.
 Rotational symmetry number  1.
 Warning -- assumption of classical behavior for rotation
           may cause significant error
 Rotational temperatures (Kelvin)      0.10586     0.05455     0.05007
 Rotational constants (GHZ):           2.20568     1.13668     1.04329
    1 imaginary frequencies ignored.
 Zero-point vibrational energy     193682.3 (Joules/Mol)
                                   46.29117 (Kcal/Mol)
 Warning -- explicit consideration of  12 degrees of freedom as
           vibrations may cause significant error
 Vibrational temperatures:     27.49    28.64    50.69    69.57    93.16
          (Kelvin)            294.82   302.28   577.49   620.80   805.89
                              806.29   847.60  1166.57  1210.35  1432.84
                             1459.85  1545.72  1735.27  1804.17  1948.20
                             1956.35  2000.57  2136.77  2470.40  2812.97
                             4527.63  4551.73  4633.88  4671.20

 Zero-point correction=                           0.073770 (Hartree/Particle)
 Thermal correction to Energy=                    0.083436
 Thermal correction to Enthalpy=                  0.084380
 Thermal correction to Gibbs Free Energy=         0.034035
 Sum of electronic and zero-point Energies=           -554.084943
 Sum of electronic and thermal Energies=              -554.075276
 Sum of electronic and thermal Enthalpies=            -554.074332
 Sum of electronic and thermal Free Energies=         -554.124678

                     E (Thermal)             CV                S
                      KCal/Mol        Cal/Mol-Kelvin    Cal/Mol-Kelvin
 Total                   52.357             28.801            105.962
 Electronic               0.000              0.000              0.000
 Translational            0.889              2.981             40.454
 Rotational               0.889              2.981             29.198
 Vibrational             50.580             22.839             36.309
 Vibration     1          0.593              1.986              6.725
 Vibration     2          0.593              1.986              6.644
 Vibration     3          0.594              1.982              5.511
 Vibration     4          0.595              1.978              4.884
 Vibration     5          0.597              1.971              4.307
 Vibration     6          0.640              1.833              2.089
 Vibration     7          0.642              1.825              2.043
 Vibration     8          0.767              1.467              0.958
 Vibration     9          0.793              1.402              0.854
 Vibration    10          0.916              1.118              0.524
 Vibration    11          0.916              1.117              0.523
 Vibration    12          0.946              1.055              0.469

 Optimization completed on the basis of negligible forces.
    -- Stationary point found.
 Normal termination of Gaussian 09 at Wed Nov 16 22:56:32 2016.
