 Gaussian 09, Revision D.01,
 Gaussian 09:  ES64L-G09RevD.01 24-Apr-2013

 -------------------------------------------------------------
 # td=(singlet,nstates=50) cam-b3lyp/6-311++g** geom=check gfp
 -------------------------------------------------------------

 -----
 Title
 -----
 Structure from the checkpoint file:  "c2h4-c2f4-camb3lyp-pople-td.chk"
 Charge =  0 Multiplicity = 1

                         Standard orientation:
 ---------------------------------------------------------------------
 Center     Atomic      Atomic             Coordinates (Angstroms)
 Number     Number       Type             X           Y           Z
 ---------------------------------------------------------------------
      1          6           0       -2.795364    0.666462   -0.000836
      2          1           0       -2.808842    1.234837   -0.924077
      3          1           0       -2.808959    1.236075    0.921640
      4          6           0       -2.769900   -0.652733    0.000053
      5          1           0       -2.761273   -1.221870   -0.922108
      6          1           0       -2.761391   -1.220631    0.922979
      7          6           0        0.938618    0.646662    0.000248
      8          6           0        0.927150   -0.651474    0.000021
      9          9           0        0.937281    1.369323    1.095801
     10          9           0        0.938455    1.369693   -1.095064
     11          9           0        0.913618   -1.374247    1.095548
     12          9           0        0.914806   -1.373871   -1.095768
 ---------------------------------------------------------------------

 SCF Done:  E(RCAM-B3LYP) =  -554.103688033     A.U. after   12 cycles

 Excitation energies and oscillator strengths:

 Excited State   1:      Singlet-A      6.7138 eV  184.67 nm  f=0.0435  <S**2>=0.000
      31 -> 37         0.18309
      32 -> 33         0.55146
      32 -> 37        -0.36350
 This state for optimization and/or second-order correction.
 Total Energy, E(TD-HF/TD-KS) =  -553.856958849
 Copying the excited state density for this state as the 1-particle RhoCI density.

 Excited State   2:      Singlet-A      6.7926 eV  182.53 nm  f=0.0002  <S**2>=0.000
      31 -> 36         0.11372
      31 -> 40        -0.19187
      31 -> 48        -0.13362
      32 -> 36        -0.35178
      32 -> 40         0.45525
      32 -> 48         0.30770

 Excited State   3:      Singlet-A      7.1863 eV  172.53 nm  f=0.0477  <S**2>=0.000
      31 -> 33         0.58047
      31 -> 37         0.10239
      31 -> 51        -0.10098
      32 -> 33         0.23050
      32 -> 37         0.27128

 Excited State   4:      Singlet-A      7.2496 eV  171.02 nm  f=0.0366  <S**2>=0.000
      32 -> 34         0.67900

 Excited State   5:      Singlet-A      7.6176 eV  162.76 nm  f=0.1219  <S**2>=0.000
      31 -> 34         0.58288
      31 -> 35         0.11014
      32 -> 35         0.31458
      32 -> 39         0.18506

 Excited State   6:      Singlet-A      7.7560 eV  159.86 nm  f=0.0000  <S**2>=0.000
      31 -> 36         0.52855
      31 -> 52         0.10610
      32 -> 36         0.38861
      32 -> 40         0.14946

 Excited State   7:      Singlet-A      7.8384 eV  158.18 nm  f=0.0078  <S**2>=0.000
      31 -> 34        -0.30350
      31 -> 35         0.43160
      32 -> 35         0.43322

 Excited State   8:      Singlet-A      8.0309 eV  154.38 nm  f=0.0178  <S**2>=0.000
      31 -> 33        -0.31691
      31 -> 37        -0.16039
      32 -> 33         0.31398
      32 -> 37         0.47153
      32 -> 42        -0.13945
      32 -> 43         0.11383

 Excited State   9:      Singlet-A      8.1052 eV  152.97 nm  f=0.0001  <S**2>=0.000
      30 -> 34         0.65280
      30 -> 35         0.15605
      30 -> 41         0.13426

 Excited State  10:      Singlet-A      8.1402 eV  152.31 nm  f=0.1065  <S**2>=0.000
      31 -> 34         0.21028
      31 -> 35         0.42779
      31 -> 39         0.10047
      32 -> 34        -0.12533
      32 -> 35        -0.29610
      32 -> 39        -0.36586

 Excited State  11:      Singlet-A      8.4894 eV  146.05 nm  f=0.0001  <S**2>=0.000
      31 -> 36        -0.40017
      32 -> 36         0.44593
      32 -> 40         0.18335
      32 -> 48         0.27528

 Excited State  12:      Singlet-A      8.5659 eV  144.74 nm  f=0.0039  <S**2>=0.000
      31 -> 33        -0.16173
      31 -> 37         0.59131
      31 -> 42         0.11112
      31 -> 46        -0.10225
      32 -> 37         0.19590
      32 -> 42         0.15732

 Excited State  13:      Singlet-A      8.6212 eV  143.81 nm  f=0.2654  <S**2>=0.000
      31 -> 35         0.23913
      31 -> 39        -0.10377
      32 -> 35        -0.23273
      32 -> 39         0.49140
      32 -> 41        -0.33494

 Excited State  14:      Singlet-A      8.8093 eV  140.74 nm  f=0.1501  <S**2>=0.000
      31 -> 35         0.18362
      31 -> 39        -0.14651
      32 -> 35        -0.22068
      32 -> 39         0.16754
      32 -> 41         0.57371
      32 -> 47         0.10979

 Excited State  15:      Singlet-A      8.9112 eV  139.13 nm  f=0.0000  <S**2>=0.000
      31 -> 38         0.29589
      32 -> 38         0.62033

 Excited State  16:      Singlet-A      9.0647 eV  136.78 nm  f=0.0268  <S**2>=0.000
      31 -> 39        -0.46935
      31 -> 41         0.50497
      32 -> 39        -0.12010

 Excited State  17:      Singlet-A      9.1281 eV  135.83 nm  f=0.0067  <S**2>=0.000
      31 -> 36        -0.13849
      31 -> 40         0.50113
      31 -> 48         0.15206
      32 -> 40         0.39765
      32 -> 48        -0.18627

 Excited State  18:      Singlet-A      9.1331 eV  135.75 nm  f=0.0079  <S**2>=0.000
      31 -> 42         0.17638
      31 -> 43         0.33278
      31 -> 46        -0.13335
      32 -> 42         0.45785
      32 -> 43         0.32590

 Excited State  19:      Singlet-A      9.2601 eV  133.89 nm  f=0.0000  <S**2>=0.000
      31 -> 38         0.60411
      32 -> 38        -0.26514
      32 -> 44        -0.21241

 Excited State  20:      Singlet-A      9.2640 eV  133.84 nm  f=0.0354  <S**2>=0.000
      31 -> 37        -0.17480
      31 -> 42        -0.17699
      31 -> 43        -0.23795
      31 -> 45        -0.17732
      32 -> 33         0.12409
      32 -> 42         0.43154
      32 -> 43        -0.31782
      32 -> 45         0.17585

 Excited State  21:      Singlet-A      9.2849 eV  133.53 nm  f=0.0000  <S**2>=0.000
      30 -> 33         0.65913
      30 -> 37         0.19743
      30 -> 51        -0.12040

 Excited State  22:      Singlet-A      9.3724 eV  132.29 nm  f=0.0014  <S**2>=0.000
      31 -> 40         0.42118
      31 -> 48        -0.13378
      32 -> 36        -0.11179
      32 -> 40        -0.26382
      32 -> 48         0.45263

 Excited State  23:      Singlet-A      9.3919 eV  132.01 nm  f=0.1220  <S**2>=0.000
      31 -> 42        -0.10133
      31 -> 43         0.36803
      31 -> 46         0.10822
      32 -> 33         0.11421
      32 -> 43        -0.10406
      32 -> 45         0.45984
      32 -> 46        -0.27388

 Excited State  24:      Singlet-A      9.4919 eV  130.62 nm  f=0.0149  <S**2>=0.000
      31 -> 37        -0.10875
      31 -> 42         0.52461
      31 -> 45        -0.21665
      32 -> 43        -0.21914
      32 -> 46        -0.29633

 Excited State  25:      Singlet-A      9.6267 eV  128.79 nm  f=0.0224  <S**2>=0.000
      29 -> 34         0.23086
      30 -> 36        -0.12849
      31 -> 39         0.40756
      31 -> 41         0.39692
      31 -> 50        -0.11969
      32 -> 39         0.13892
      32 -> 41         0.15237

 Excited State  26:      Singlet-A      9.7047 eV  127.76 nm  f=0.0029  <S**2>=0.000
      29 -> 34         0.60350
      29 -> 35         0.14935
      29 -> 41         0.13466
      31 -> 39        -0.13656
      31 -> 41        -0.17490

 Excited State  27:      Singlet-A      9.9439 eV  124.68 nm  f=0.0884  <S**2>=0.000
      30 -> 34        -0.14036
      30 -> 35         0.66396
      30 -> 39        -0.10819

 Excited State  28:      Singlet-A     10.0203 eV  123.73 nm  f=0.0556  <S**2>=0.000
      30 -> 36         0.61189
      30 -> 40         0.11265
      32 -> 50         0.20914

 Excited State  29:      Singlet-A     10.0403 eV  123.49 nm  f=0.0046  <S**2>=0.000
      30 -> 36        -0.23981
      31 -> 39        -0.14725
      31 -> 41        -0.12008
      31 -> 50        -0.15510
      32 -> 47        -0.27925
      32 -> 49         0.11815
      32 -> 50         0.46352
      32 -> 59        -0.15355

 Excited State  30:      Singlet-A     10.1689 eV  121.93 nm  f=0.0000  <S**2>=0.000
      31 -> 38         0.15846
      31 -> 44        -0.15860
      32 -> 38        -0.18296
      32 -> 44         0.64103

 Excited State  31:      Singlet-A     10.2124 eV  121.40 nm  f=0.0572  <S**2>=0.000
      31 -> 43        -0.37377
      32 -> 43         0.39492
      32 -> 45         0.18284
      32 -> 46        -0.35567

 Excited State  32:      Singlet-A     10.4143 eV  119.05 nm  f=0.1008  <S**2>=0.000
      31 -> 37        -0.12443
      31 -> 42         0.17689
      31 -> 45         0.49010
      31 -> 46        -0.30414
      31 -> 51         0.10591
      32 -> 43        -0.16776
      32 -> 45         0.16571
      32 -> 46         0.14790

 Excited State  33:      Singlet-A     10.5053 eV  118.02 nm  f=0.0064  <S**2>=0.000
      31 -> 49         0.10503
      31 -> 50        -0.11208
      32 -> 45        -0.14229
      32 -> 46        -0.11802
      32 -> 47         0.53990
      32 -> 50         0.29987

 Excited State  34:      Singlet-A     10.5372 eV  117.66 nm  f=0.0118  <S**2>=0.000
      31 -> 42         0.20702
      31 -> 43        -0.12973
      31 -> 45        -0.18453
      32 -> 42        -0.10869
      32 -> 43         0.12031
      32 -> 45         0.36927
      32 -> 46         0.36661
      32 -> 47         0.19898
      32 -> 50         0.11801
      32 -> 51        -0.18830

 Excited State  35:      Singlet-A     10.5803 eV  117.18 nm  f=0.0000  <S**2>=0.000
      30 -> 33        -0.17757
      30 -> 37         0.61115
      30 -> 42         0.18124
      30 -> 43        -0.19318
      30 -> 46        -0.13031

 Excited State  36:      Singlet-A     10.7513 eV  115.32 nm  f=0.0006  <S**2>=0.000
      31 -> 47         0.45354
      31 -> 49         0.30145
      32 -> 49         0.40556
      32 -> 50        -0.11681

 Excited State  37:      Singlet-A     10.8519 eV  114.25 nm  f=0.0014  <S**2>=0.000
      31 -> 42         0.14461
      31 -> 45         0.31235
      31 -> 46         0.49336
      31 -> 51        -0.21417
      32 -> 42         0.14712
      32 -> 51        -0.18502

 Excited State  38:      Singlet-A     10.8567 eV  114.20 nm  f=0.0025  <S**2>=0.000
      31 -> 36         0.11781
      31 -> 48         0.46471
      31 -> 52        -0.32106
      32 -> 48         0.21994
      32 -> 52        -0.32702

 Excited State  39:      Singlet-A     10.9450 eV  113.28 nm  f=0.0000  <S**2>=0.000
      31 -> 44         0.67357
      32 -> 44         0.17327

 Excited State  40:      Singlet-A     10.9480 eV  113.25 nm  f=0.0156  <S**2>=0.000
      31 -> 42         0.16774
      31 -> 46         0.28114
      31 -> 51         0.16394
      31 -> 57         0.11484
      32 -> 46         0.13695
      32 -> 51         0.55761

 Excited State  41:      Singlet-A     11.0892 eV  111.81 nm  f=0.0052  <S**2>=0.000
      31 -> 40        -0.10806
      31 -> 48         0.44188
      31 -> 52         0.33789
      31 -> 56        -0.17332
      32 -> 48         0.14406
      32 -> 52         0.32275
      32 -> 56        -0.11790

 Excited State  42:      Singlet-A     11.1196 eV  111.50 nm  f=0.0055  <S**2>=0.000
      31 -> 47         0.42307
      31 -> 49        -0.28030
      31 -> 53         0.23469
      31 -> 54        -0.12786
      32 -> 49        -0.30306
      32 -> 53         0.19930
      32 -> 54        -0.11102

 Excited State  43:      Singlet-A     11.2130 eV  110.57 nm  f=0.0002  <S**2>=0.000
      29 -> 33        -0.13337
      30 -> 38         0.59275
      31 -> 51        -0.28249
      32 -> 51         0.12956

 Excited State  44:      Singlet-A     11.2248 eV  110.46 nm  f=0.0006  <S**2>=0.000
      31 -> 52         0.11996
      31 -> 56         0.53348
      32 -> 52         0.18090
      32 -> 56         0.36822

 Excited State  45:      Singlet-A     11.2405 eV  110.30 nm  f=0.0023  <S**2>=0.000
      31 -> 50         0.38301
      31 -> 51        -0.12476
      31 -> 53         0.27838
      31 -> 54         0.18233
      32 -> 49         0.15827
      32 -> 50         0.15873
      32 -> 53         0.29914
      32 -> 54         0.16140

 Excited State  46:      Singlet-A     11.2517 eV  110.19 nm  f=0.0002  <S**2>=0.000
      29 -> 33        -0.20182
      30 -> 38         0.26410
      31 -> 46         0.13615
      31 -> 51         0.49103
      32 -> 51        -0.20644
      32 -> 57         0.14815

 Excited State  47:      Singlet-A     11.2707 eV  110.01 nm  f=0.0000  <S**2>=0.000
      24 -> 34        -0.14034
      30 -> 42         0.44688
      30 -> 43         0.46931
      30 -> 46        -0.15411

 Excited State  48:      Singlet-A     11.2836 eV  109.88 nm  f=0.0000  <S**2>=0.000
      23 -> 34        -0.14570
      24 -> 34         0.59971
      24 -> 35         0.16262
      24 -> 41         0.12728
      30 -> 43         0.13406

 Excited State  49:      Singlet-A     11.2895 eV  109.82 nm  f=0.0000  <S**2>=0.000
      24 -> 34        -0.13141
      30 -> 39        -0.47914
      30 -> 41         0.48371

 Excited State  50:      Singlet-A     11.3590 eV  109.15 nm  f=0.0069  <S**2>=0.000
      30 -> 36        -0.11702
      30 -> 40         0.67567

 The electronic state is 1-A.
 Alpha  occ. eigenvalues --  -24.82008 -24.82007 -24.82002 -24.82002 -10.44156
 Alpha  occ. eigenvalues --  -10.44047 -10.24979 -10.24882  -1.41435  -1.39858
 Alpha  occ. eigenvalues --   -1.35404  -1.34157  -0.91108  -0.85525  -0.75659
 Alpha  occ. eigenvalues --   -0.71649  -0.70651  -0.66247  -0.65754  -0.65482
 Alpha  occ. eigenvalues --   -0.60659  -0.57942  -0.55639  -0.55027  -0.54847
 Alpha  occ. eigenvalues --   -0.54441  -0.53993  -0.52344  -0.49965  -0.42653
 Alpha  occ. eigenvalues --   -0.35222  -0.33520
 Alpha virt. eigenvalues --    0.01842   0.02914   0.03563   0.03798   0.04122
 Alpha virt. eigenvalues --    0.06584   0.06830   0.06928   0.07984   0.09376
 Alpha virt. eigenvalues --    0.10259   0.11992   0.12296   0.12635   0.13558

 Mulliken charges:
               1
     1  C   -0.255742
     2  H    0.131511
     3  H    0.131507
     4  C   -0.261532
     5  H    0.132444
     6  H    0.132464
     7  C    0.169470
     8  C    0.161351
     9  F   -0.085580
    10  F   -0.085572
    11  F   -0.085168
    12  F   -0.085151
 Sum of Mulliken charges =   0.00000

 Dipole moment (field-independent basis, Debye):
    X=             -0.1712    Y=              0.0037    Z=              0.0000  Tot=              0.1712
 Quadrupole moment (field-independent basis, Debye-Ang):
   XX=            -45.0636   YY=            -45.5186   ZZ=            -45.7642
   XY=             -0.0986   XZ=              0.0018   YZ=             -0.0001

 Normal termination of Gaussian 09 at Wed Nov 16 19:14:34 2016.
