 Gaussian 09, Revision D.01,
 Gaussian 09:  ES64L-G09RevD.01 24-Apr-2013

 ----------------------------------------------------------
 # td=(singlet,nstates=50) b3lyp/aug-cc-pvtz geom=check gfp
 ----------------------------------------------------------

 -----
 Title
 -----
 Structure from the checkpoint file:  "c2h4f4-mo.chk"
 Charge =  0 Multiplicity = 1

                         Standard orientation:
 ---------------------------------------------------------------------
 Center     Atomic      Atomic             Coordinates (Angstroms)
 Number     Number       Type             X           Y           Z
 ---------------------------------------------------------------------
      1          6           0       -3.066150    0.516174   -0.001165
      2          1           0       -3.127140    1.080555   -0.922887
      3          1           0       -3.127125    1.083832    0.918544
      4          6           0       -2.927430   -0.801675    0.001181
      5          1           0       -2.869507   -1.369444   -0.918677
      6          1           0       -2.869410   -1.366131    0.923072
      7          6           0        0.930482    0.704100    0.000277
      8          6           0        1.071758   -0.608314   -0.000290
      9          9           0        0.849543    1.426768    1.101289
     10          9           0        0.849555    1.427796   -1.100018
     11          9           0        1.147294   -1.332803    1.100196
     12          9           0        1.147076   -1.331819   -1.101474
 ---------------------------------------------------------------------

 SCF Done:  E(RB3LYP) =  -554.335977532     A.U. after   10 cycles

 Excitation energies and oscillator strengths:

 Excited State   1:      Singlet-A      6.1404 eV  201.91 nm  f=0.0254  <S**2>=0.000
      32 -> 33        -0.29434
      32 -> 34         0.60881
      32 -> 37        -0.17130
 This state for optimization and/or second-order correction.
 Total Energy, E(TD-HF/TD-KS) =  -554.110320380
 Copying the excited state density for this state as the 1-particle RhoCI density.

 Excited State   2:      Singlet-A      6.2185 eV  199.38 nm  f=0.0015  <S**2>=0.000
      31 -> 33        -0.10767
      32 -> 33         0.62601
      32 -> 34         0.28975

 Excited State   3:      Singlet-A      6.4828 eV  191.25 nm  f=0.0002  <S**2>=0.000
      32 -> 36         0.56593
      32 -> 39         0.37051
      32 -> 46        -0.16496

 Excited State   4:      Singlet-A      6.6768 eV  185.69 nm  f=0.0549  <S**2>=0.000
      31 -> 34         0.64306
      31 -> 37         0.13905
      32 -> 37         0.21248

 Excited State   5:      Singlet-A      6.9041 eV  179.58 nm  f=0.0010  <S**2>=0.000
      32 -> 35         0.67801
      32 -> 40         0.13263

 Excited State   6:      Singlet-A      6.9550 eV  178.27 nm  f=0.0125  <S**2>=0.000
      31 -> 34        -0.21992
      32 -> 34         0.17727
      32 -> 37         0.63508

 Excited State   7:      Singlet-A      7.1840 eV  172.58 nm  f=0.0003  <S**2>=0.000
      31 -> 36         0.55173
      32 -> 36         0.28307
      32 -> 39        -0.30770

 Excited State   8:      Singlet-A      7.1994 eV  172.22 nm  f=0.0414  <S**2>=0.000
      31 -> 33         0.43053
      31 -> 35         0.49950
      31 -> 38        -0.15307
      32 -> 38        -0.12157

 Excited State   9:      Singlet-A      7.3479 eV  168.74 nm  f=0.0783  <S**2>=0.000
      31 -> 33        -0.42790
      31 -> 35         0.43951
      31 -> 37        -0.11255
      31 -> 38         0.14998
      31 -> 40        -0.16071
      32 -> 40        -0.18963

 Excited State  10:      Singlet-A      7.3804 eV  167.99 nm  f=0.0001  <S**2>=0.000
      31 -> 36         0.41617
      32 -> 36        -0.30480
      32 -> 39         0.45141
      32 -> 46        -0.12592

 Excited State  11:      Singlet-A      7.4226 eV  167.04 nm  f=0.0006  <S**2>=0.000
      31 -> 34        -0.15978
      31 -> 35         0.11236
      31 -> 37         0.66910

 Excited State  12:      Singlet-A      7.5556 eV  164.10 nm  f=0.0182  <S**2>=0.000
      31 -> 33         0.10463
      31 -> 35         0.13205
      31 -> 38         0.35347
      32 -> 38         0.27885
      32 -> 40         0.50098

 Excited State  13:      Singlet-A      7.6279 eV  162.54 nm  f=0.0485  <S**2>=0.000
      31 -> 33         0.21575
      31 -> 38         0.52187
      31 -> 40         0.10884
      32 -> 40        -0.38099

 Excited State  14:      Singlet-A      7.8872 eV  157.20 nm  f=0.0066  <S**2>=0.000
      30 -> 33         0.21320
      31 -> 36         0.10316
      31 -> 39         0.63528
      32 -> 41         0.11298

 Excited State  15:      Singlet-A      7.9099 eV  156.75 nm  f=0.0002  <S**2>=0.000
      31 -> 39        -0.10422
      32 -> 41         0.68921

 Excited State  16:      Singlet-A      7.9695 eV  155.57 nm  f=0.0005  <S**2>=0.000
      30 -> 33         0.65790
      31 -> 39        -0.22133

 Excited State  17:      Singlet-A      8.0489 eV  154.04 nm  f=0.0072  <S**2>=0.000
      32 -> 42         0.67894
      32 -> 44         0.12040

 Excited State  18:      Singlet-A      8.2029 eV  151.15 nm  f=0.0277  <S**2>=0.000
      32 -> 43         0.66716
      32 -> 44        -0.12430

 Excited State  19:      Singlet-A      8.2517 eV  150.25 nm  f=0.0001  <S**2>=0.000
      31 -> 33        -0.10635
      31 -> 40         0.64307
      32 -> 38         0.19200

 Excited State  20:      Singlet-A      8.2764 eV  149.80 nm  f=0.0000  <S**2>=0.000
      31 -> 41         0.69714

 Excited State  21:      Singlet-A      8.3242 eV  148.94 nm  f=0.4469  <S**2>=0.000
      31 -> 33         0.13616
      31 -> 38        -0.21251
      31 -> 40        -0.15792
      32 -> 38         0.57960
      32 -> 40        -0.19513
      32 -> 43         0.11514

 Excited State  22:      Singlet-A      8.3290 eV  148.86 nm  f=0.0010  <S**2>=0.000
      31 -> 39        -0.11479
      32 -> 39         0.22255
      32 -> 45         0.17724
      32 -> 46         0.60837
      32 -> 51        -0.13114

 Excited State  23:      Singlet-A      8.4865 eV  146.10 nm  f=0.0268  <S**2>=0.000
      31 -> 42        -0.39286
      31 -> 43         0.44850
      31 -> 44         0.14058
      32 -> 44         0.32411

 Excited State  24:      Singlet-A      8.5337 eV  145.29 nm  f=0.0051  <S**2>=0.000
      31 -> 42         0.52148
      31 -> 43         0.42616
      32 -> 47         0.11473

 Excited State  25:      Singlet-A      8.6811 eV  142.82 nm  f=0.0305  <S**2>=0.000
      31 -> 42         0.17957
      31 -> 43        -0.27210
      32 -> 43         0.14891
      32 -> 44         0.59122

 Excited State  26:      Singlet-A      8.7610 eV  141.52 nm  f=0.0000  <S**2>=0.000
      30 -> 34         0.68164
      30 -> 37         0.15162

 Excited State  27:      Singlet-A      8.8206 eV  140.56 nm  f=0.0000  <S**2>=0.000
      32 -> 45         0.67170
      32 -> 46        -0.18892

 Excited State  28:      Singlet-A      8.8696 eV  139.78 nm  f=0.0002  <S**2>=0.000
      32 -> 47         0.60947
      32 -> 48        -0.17201
      32 -> 52         0.27679

 Excited State  29:      Singlet-A      8.9381 eV  138.71 nm  f=0.0019  <S**2>=0.000
      31 -> 42        -0.10516
      32 -> 47         0.24154
      32 -> 48         0.61332
      32 -> 52        -0.18700

 Excited State  30:      Singlet-A      9.1063 eV  136.15 nm  f=0.1143  <S**2>=0.000
      31 -> 43        -0.11950
      31 -> 44         0.66386
      32 -> 49         0.14784

 Excited State  31:      Singlet-A      9.1397 eV  135.65 nm  f=0.0030  <S**2>=0.000
      32 -> 47         0.14452
      32 -> 48        -0.18644
      32 -> 50         0.50299
      32 -> 52        -0.40203

 Excited State  32:      Singlet-A      9.1573 eV  135.39 nm  f=0.0011  <S**2>=0.000
      31 -> 44        -0.13091
      32 -> 49         0.66688
      32 -> 56        -0.10404

 Excited State  33:      Singlet-A      9.2221 eV  134.44 nm  f=0.0007  <S**2>=0.000
      31 -> 45         0.12925
      31 -> 46         0.44093
      31 -> 51         0.19324
      32 -> 46         0.15555
      32 -> 51         0.46139

 Excited State  34:      Singlet-A      9.2418 eV  134.16 nm  f=0.0028  <S**2>=0.000
      31 -> 47        -0.22024
      31 -> 48         0.23793
      32 -> 47        -0.13039
      32 -> 48         0.15449
      32 -> 50         0.44660
      32 -> 52         0.37345

 Excited State  35:      Singlet-A      9.3198 eV  133.03 nm  f=0.0019  <S**2>=0.000
      31 -> 45        -0.19148
      31 -> 46        -0.46745
      32 -> 51         0.46818

 Excited State  36:      Singlet-A      9.3275 eV  132.92 nm  f=0.0086  <S**2>=0.000
      30 -> 36         0.15868
      31 -> 47         0.60297
      31 -> 48         0.16461
      31 -> 49         0.15723
      32 -> 52         0.13659

 Excited State  37:      Singlet-A      9.3378 eV  132.78 nm  f=0.0512  <S**2>=0.000
      30 -> 35         0.68062

 Excited State  38:      Singlet-A      9.3535 eV  132.55 nm  f=0.0270  <S**2>=0.000
      30 -> 36        -0.42828
      31 -> 48         0.49573
      32 -> 52        -0.16071

 Excited State  39:      Singlet-A      9.3956 eV  131.96 nm  f=0.0130  <S**2>=0.000
      30 -> 36         0.50896
      31 -> 47        -0.17441
      31 -> 48         0.36209
      31 -> 50         0.14086
      32 -> 50        -0.12528
      32 -> 52        -0.14010

 Excited State  40:      Singlet-A      9.3985 eV  131.92 nm  f=0.0002  <S**2>=0.000
      31 -> 45         0.66202
      31 -> 46        -0.22683

 Excited State  41:      Singlet-A      9.4710 eV  130.91 nm  f=0.0007  <S**2>=0.000
      30 -> 34        -0.15233
      30 -> 37         0.67920

 Excited State  42:      Singlet-A      9.5266 eV  130.15 nm  f=0.0109  <S**2>=0.000
      31 -> 47        -0.14458
      31 -> 48        -0.10614
      31 -> 49         0.65702
      31 -> 50         0.10608

 Excited State  43:      Singlet-A      9.5311 eV  130.08 nm  f=0.0048  <S**2>=0.000
      31 -> 46        -0.11905
      31 -> 51         0.66143
      32 -> 51        -0.14585

 Excited State  44:      Singlet-A      9.5593 eV  129.70 nm  f=0.0002  <S**2>=0.000
      29 -> 33         0.67761

 Excited State  45:      Singlet-A      9.7040 eV  127.77 nm  f=0.0001  <S**2>=0.000
      30 -> 38         0.69759

 Excited State  46:      Singlet-A      9.7637 eV  126.98 nm  f=0.0097  <S**2>=0.000
      31 -> 50         0.59689
      31 -> 52        -0.30336

 Excited State  47:      Singlet-A      9.8800 eV  125.49 nm  f=0.0108  <S**2>=0.000
      31 -> 50         0.24056
      31 -> 52         0.61026
      32 -> 53         0.16013

 Excited State  48:      Singlet-A      9.9318 eV  124.84 nm  f=0.0089  <S**2>=0.000
      32 -> 51        -0.11053
      32 -> 54         0.65962
      32 -> 55         0.18571

 Excited State  49:      Singlet-A      9.9604 eV  124.48 nm  f=0.0029  <S**2>=0.000
      31 -> 50        -0.16783
      31 -> 52        -0.11126
      32 -> 53         0.64879
      32 -> 56         0.13438

 Excited State  50:      Singlet-A     10.0217 eV  123.72 nm  f=0.0392  <S**2>=0.000
      30 -> 39         0.10384
      32 -> 49         0.11035
      32 -> 53        -0.13267
      32 -> 56         0.66309

 The electronic state is 1-A.
 Alpha  occ. eigenvalues --  -24.75101 -24.75100 -24.75088 -24.75086 -10.36760
 Alpha  occ. eigenvalues --  -10.36661 -10.18059 -10.17960  -1.32331  -1.30949
 Alpha  occ. eigenvalues --   -1.26695  -1.25625  -0.82034  -0.77173  -0.67816
 Alpha  occ. eigenvalues --   -0.63483  -0.62709  -0.58921  -0.58358  -0.57188
 Alpha  occ. eigenvalues --   -0.52925  -0.50254  -0.48105  -0.47915  -0.47437
 Alpha  occ. eigenvalues --   -0.47037  -0.46580  -0.45081  -0.43191  -0.36446
 Alpha  occ. eigenvalues --   -0.28813  -0.27139
 Alpha virt. eigenvalues --   -0.01729  -0.01289   0.00603   0.00712   0.00828
 Alpha virt. eigenvalues --    0.01695   0.02851   0.03248   0.03914   0.05129
 Alpha virt. eigenvalues --    0.05622   0.07216   0.07700   0.07736   0.07831

 Mulliken charges:
               1
     1  C   -0.640678
     2  H    0.318038
     3  H    0.318123
     4  C   -0.637159
     5  H    0.319425
     6  H    0.319279
     7  C    0.599261
     8  C    0.585414
     9  F   -0.295441
    10  F   -0.295282
    11  F   -0.295425
    12  F   -0.295555
 Sum of Mulliken charges =   0.00000

 Dipole moment (field-independent basis, Debye):
    X=             -0.1605    Y=              0.0043    Z=             -0.0001  Tot=              0.1606
 Quadrupole moment (field-independent basis, Debye-Ang):
   XX=            -44.9118   YY=            -44.9719   ZZ=            -45.1906
   XY=             -0.0101   XZ=              0.0007   YZ=             -0.0005

 Normal termination of Gaussian 09 at Thu Nov 10 13:06:52 2016.
