 Gaussian 09, Revision D.01,
 Gaussian 09:  ES64L-G09RevD.01 24-Apr-2013

 ---------------------------------------------------
 # opt freq=raman b97d/aug-cc-pvtz geom=connectivity
 ---------------------------------------------------

 -----
 Title
 -----
 Symbolic Z-matrix:
 Charge =  0 Multiplicity = 1

 SCF Done:  E(RB97D) =  -554.023046830     A.U. after   11 cycles
 SCF Done:  E(RB97D) =  -554.031232427     A.U. after   11 cycles
 SCF Done:  E(RB97D) =  -554.031651089     A.U. after    8 cycles
 SCF Done:  E(RB97D) =  -554.031708126     A.U. after    7 cycles
 SCF Done:  E(RB97D) =  -554.031829169     A.U. after    8 cycles
 SCF Done:  E(RB97D) =  -554.032057410     A.U. after    9 cycles
 SCF Done:  E(RB97D) =  -554.031951976     A.U. after    9 cycles
 SCF Done:  E(RB97D) =  -554.032150292     A.U. after   10 cycles
 SCF Done:  E(RB97D) =  -554.032127204     A.U. after    7 cycles
 SCF Done:  E(RB97D) =  -554.032195996     A.U. after    8 cycles
 SCF Done:  E(RB97D) =  -554.032385101     A.U. after   10 cycles
 SCF Done:  E(RB97D) =  -554.032494010     A.U. after    8 cycles
 SCF Done:  E(RB97D) =  -554.032511092     A.U. after    9 cycles
 SCF Done:  E(RB97D) =  -554.032516665     A.U. after    8 cycles
 SCF Done:  E(RB97D) =  -554.032520725     A.U. after    8 cycles
 SCF Done:  E(RB97D) =  -554.032523090     A.U. after    7 cycles
 SCF Done:  E(RB97D) =  -554.032524613     A.U. after    7 cycles
 SCF Done:  E(RB97D) =  -554.032524587     A.U. after    6 cycles
 SCF Done:  E(RB97D) =  -554.032524541     A.U. after    6 cycles
 Optimization completed.
    -- Stationary point found.
 Normal termination of Gaussian 09 at Thu Nov 10 14:09:24 2016.

 ----------------------------------------------------------------------
 #N Geom=AllCheck Guess=TCheck SCRF=Check GenChk RB97D/Aug-CC-pVTZ Freq
 ----------------------------------------------------------------------

 Structure from the checkpoint file:  "c2h4-c2f4-diff-aug.chk"
 -----
 Title
 -----
 Charge =  0 Multiplicity = 1

                         Standard orientation:
 ---------------------------------------------------------------------
 Center     Atomic      Atomic             Coordinates (Angstroms)
 Number     Number       Type             X           Y           Z
 ---------------------------------------------------------------------
      1          6           0       -2.895197   -0.204004    0.001670
      2          1           0       -3.237148    0.252913   -0.925134
      3          1           0       -3.230984    0.254492    0.929946
      4          6           0       -2.096451   -1.270823   -0.000064
      5          1           0       -1.758676   -1.728500   -0.928242
      6          1           0       -1.752581   -1.726918    0.926652
      7          6           0        0.484936    0.814713   -0.000780
      8          6           0        1.189416   -0.314497    0.000207
      9          9           0        0.094654    1.430337    1.106807
     10          9           0        0.094155    1.428133   -1.109396
     11          9           0        1.566066   -0.939422    1.109923
     12          9           0        1.565476   -0.941750   -1.108381
 ---------------------------------------------------------------------

 SCF Done:  E(RB97D) =  -554.032524541     A.U. after    2 cycles

 The electronic state is 1-A.
 Alpha  occ. eigenvalues --  -24.31335 -24.31335 -24.31255 -24.31254 -10.08620
 Alpha  occ. eigenvalues --  -10.08496  -9.90945  -9.90846  -1.21470  -1.20191
 Alpha  occ. eigenvalues --   -1.16208  -1.15218  -0.74027  -0.69817  -0.60862
 Alpha  occ. eigenvalues --   -0.56403  -0.56074  -0.52939  -0.52099  -0.49923
 Alpha  occ. eigenvalues --   -0.45876  -0.43241  -0.42669  -0.41138  -0.40607
 Alpha  occ. eigenvalues --   -0.40369  -0.40148  -0.38467  -0.37970  -0.31946
 Alpha  occ. eigenvalues --   -0.25199  -0.22442
 Alpha virt. eigenvalues --   -0.04100  -0.01657  -0.01277  -0.00545   0.00000
 Alpha virt. eigenvalues --    0.00773   0.01789   0.02753   0.03984   0.04720
 Alpha virt. eigenvalues --    0.05184   0.05961   0.06640   0.07266   0.07774

 Mulliken charges:
               1
     1  C   -0.453226
     2  H    0.220519
     3  H    0.220177
     4  C   -0.463157
     5  H    0.224764
     6  H    0.226211
     7  C    0.677826
     8  C    0.607045
     9  F   -0.322480
    10  F   -0.322562
    11  F   -0.307649
    12  F   -0.307470
 Sum of Mulliken charges =   0.00000

 Dipole moment (field-independent basis, Debye):
    X=             -0.1633    Y=              0.0374    Z=             -0.0005  Tot=              0.1676
 Quadrupole moment (field-independent basis, Debye-Ang):
   XX=            -44.5921   YY=            -44.9466   ZZ=            -44.6691
   XY=             -0.3344   XZ=              0.0063   YZ=              0.0049

  Exact polarizability:  60.304 -10.631  62.495   0.006   0.012  54.016
 Approx polarizability:  92.970 -33.663 116.939   0.011   0.029  87.514

                      1                      2                      3
                      A                      A                      A
 Frequencies --     11.1317                28.9582                30.7295
 Red. masses --      1.8929                 6.1617                 5.7990
 Frc consts  --      0.0001                 0.0030                 0.0032
 IR Inten    --      0.0219                 0.0111                 0.0001
 Raman Activ --      1.2663                 0.1020                 0.2503

                      4                      5                      6
                      A                      A                      A
 Frequencies --     44.3096                67.2430                76.0674
 Red. masses --      3.1022                 4.9124                 1.1792
 Frc consts  --      0.0036                 0.0131                 0.0040
 IR Inten    --      0.0702                 0.0533                 0.3435
 Raman Activ --      5.6286                 1.7682                 1.5737

                      7                      8                      9
                      A                      A                      A
 Frequencies --    194.5739               216.8827               392.0429
 Red. masses --     18.7888                17.7038                18.8722
 Frc consts  --      0.4191                 0.4906                 1.7090
 IR Inten    --      0.0107                 3.3960                 0.0104
 Raman Activ --      0.0076                 0.0201                 1.8928

                     10                     11                     12
                      A                      A                      A
 Frequencies --    417.7045               491.2910               533.9256
 Red. masses --     13.1036                12.3276                17.4409
 Frc consts  --      1.3470                 1.7531                 2.9294
 IR Inten    --      1.8755                 1.1415                 0.0000
 Raman Activ --      0.3093                13.4896                 1.8138

                     13                     14                     15
                      A                      A                      A
 Frequencies --    537.6685               763.9489               802.1173
 Red. masses --     17.4524                18.5999                 1.0420
 Frc consts  --      2.9726                 6.3957                 0.3950
 IR Inten    --      1.7020                 0.0723                 0.0590
 Raman Activ --      0.0091                11.7292                 0.0107

                     16                     17                     18
                      A                      A                      A
 Frequencies --    944.0495               949.9740              1038.6734
 Red. masses --      1.4997                 1.1718                 1.0080
 Frc consts  --      0.7875                 0.6230                 0.6407
 IR Inten    --      3.4625                98.0764                 0.0759
 Raman Activ --      5.6172                 0.0659                 0.0027

                     19                     20                     21
                      A                      A                      A
 Frequencies --   1140.4241              1214.1104              1265.1948
 Red. masses --     13.9463                 1.5264                13.0362
 Frc consts  --     10.6867                 1.3257                12.2946
 IR Inten    --    312.6411                 0.5916               234.4296
 Raman Activ --      0.0018                 0.0448                 0.1251

                     22                     23                     24
                      A                      A                      A
 Frequencies --   1272.2297              1337.5429              1438.6933
 Red. masses --     13.1640                 1.2307                 1.1123
 Frc consts  --     12.5536                 1.2972                 1.3565
 IR Inten    --    150.1294                 0.0248                 7.6434
 Raman Activ --      0.1784                38.9758                 0.0759

                     25                     26                     27
                      A                      A                      A
 Frequencies --   1641.0395              1840.5764              3054.7050
 Red. masses --      3.0970                12.1848                 1.0476
 Frc consts  --      4.9139                24.3208                 5.7596
 IR Inten    --      0.0006                 1.2287                17.3777
 Raman Activ --     39.4593                23.2940                 0.9909

                     28                     29                     30
                      A                      A                      A
 Frequencies --   3068.0617              3132.6194              3159.9645
 Red. masses --      1.0725                 1.1149                 1.1184
 Frc consts  --      5.9478                 6.4459                 6.5799
 IR Inten    --      0.1534                 0.0315                21.2631
 Raman Activ --    186.7156               105.2543                 1.6563

 - Thermochemistry -
 -------------------
 Temperature   298.150 Kelvin.  Pressure   1.00000 Atm.
 Atom     1 has atomic number  6 and mass  12.00000

 Molecular mass:   128.02491 amu.
 Principal axes and moments of inertia in atomic units:
                           1         2         3
     Eigenvalues --   866.982071391.992401567.12836
           X            0.99871   0.05084  -0.00002
           Y           -0.05084   0.99871   0.00014
           Z            0.00003  -0.00013   1.00000
 This molecule is an asymmetric top.
 Rotational symmetry number  1.
 Warning -- assumption of classical behavior for rotation
           may cause significant error
 Rotational temperatures (Kelvin)      0.09990     0.06222     0.05527
 Rotational constants (GHZ):           2.08164     1.29652     1.15162
 Zero-point vibrational energy     186057.9 (Joules/Mol)
                                   44.46891 (Kcal/Mol)
 Warning -- explicit consideration of  13 degrees of freedom as
           vibrations may cause significant error
 Vibrational temperatures:     16.02    41.66    44.21    63.75    96.75
          (Kelvin)            109.44   279.95   312.05   564.06   600.98
                              706.86   768.20   773.58  1099.15  1154.07
                             1358.27  1366.80  1494.42  1640.81  1746.83
                             1820.33  1830.45  1924.42  2069.96  2361.09
                             2648.18  4395.03  4414.25  4507.13  4546.48

 Zero-point correction=                           0.070866 (Hartree/Particle)
 Thermal correction to Energy=                    0.081514
 Thermal correction to Enthalpy=                  0.082459
 Thermal correction to Gibbs Free Energy=         0.029678
 Sum of electronic and zero-point Energies=           -553.961659
 Sum of electronic and thermal Energies=              -553.951010
 Sum of electronic and thermal Enthalpies=            -553.950066
 Sum of electronic and thermal Free Energies=         -554.002847

                     E (Thermal)             CV                S
                      KCal/Mol        Cal/Mol-Kelvin    Cal/Mol-Kelvin
 Total                   51.151             31.659            111.087
 Electronic               0.000              0.000              0.000
 Translational            0.889              2.981             40.454
 Rotational               0.889              2.981             29.027
 Vibrational             49.374             25.698             41.606
 Vibration     1          0.593              1.987              7.798
 Vibration     2          0.593              1.984              5.900
 Vibration     3          0.594              1.984              5.782
 Vibration     4          0.595              1.980              5.056
 Vibration     5          0.598              1.970              4.232
 Vibration     6          0.599              1.965              3.990
 Vibration     7          0.635              1.847              2.184
 Vibration     8          0.646              1.815              1.985
 Vibration     9          0.759              1.487              0.992
 Vibration    10          0.781              1.432              0.900
 Vibration    11          0.847              1.269              0.680
 Vibration    12          0.889              1.175              0.579
 Vibration    13          0.893              1.167              0.570

 Normal termination of Gaussian 09 at Thu Nov 10 14:46:31 2016.
