 Gaussian 09, Revision D.01,
 Gaussian 09:  ES64L-G09RevD.01 24-Apr-2013

 --------------------------------------------------
 # opt freq=raman b97d/6-311++g** geom=connectivity
 --------------------------------------------------

 -----
 Title
 -----
 Symbolic Z-matrix:
 Charge =  0 Multiplicity = 1

 SCF Done:  E(RB97D) =  -553.969757324     A.U. after   12 cycles
 SCF Done:  E(RB97D) =  -553.977602903     A.U. after   11 cycles
 SCF Done:  E(RB97D) =  -553.978013312     A.U. after    9 cycles
 SCF Done:  E(RB97D) =  -553.978069197     A.U. after    8 cycles
 SCF Done:  E(RB97D) =  -553.978203756     A.U. after    9 cycles
 SCF Done:  E(RB97D) =  -553.978470922     A.U. after    9 cycles
 SCF Done:  E(RB97D) =  -553.978345111     A.U. after   10 cycles
 SCF Done:  E(RB97D) =  -553.978536513     A.U. after   10 cycles
 SCF Done:  E(RB97D) =  -553.978509213     A.U. after    8 cycles
 SCF Done:  E(RB97D) =  -553.978583918     A.U. after    8 cycles
 SCF Done:  E(RB97D) =  -553.978868666     A.U. after   10 cycles
 SCF Done:  E(RB97D) =  -553.978858434     A.U. after   10 cycles
 SCF Done:  E(RB97D) =  -553.978827194     A.U. after   12 cycles
 SCF Done:  E(RB97D) =  -553.978883801     A.U. after   10 cycles
 SCF Done:  E(RB97D) =  -553.978877193     A.U. after   10 cycles
 SCF Done:  E(RB97D) =  -553.978893083     A.U. after   10 cycles
 SCF Done:  E(RB97D) =  -553.978895944     A.U. after    9 cycles
 SCF Done:  E(RB97D) =  -553.978896518     A.U. after    7 cycles
 SCF Done:  E(RB97D) =  -553.978896379     A.U. after    7 cycles
 Optimization completed.
    -- Stationary point found.
 Normal termination of Gaussian 09 at Thu Nov 10 12:56:31 2016.

 ----------------------------------------------------------------------
 #N Geom=AllCheck Guess=TCheck SCRF=Check GenChk RB97D/6-311++G(d,p) Fr
 eq
 ----------------------------------------------------------------------

 Structure from the checkpoint file:  "c2h4-c2f4-diffg.chk"
 -----
 Title
 -----
 Charge =  0 Multiplicity = 1

                         Standard orientation:
 ---------------------------------------------------------------------
 Center     Atomic      Atomic             Coordinates (Angstroms)
 Number     Number       Type             X           Y           Z
 ---------------------------------------------------------------------
      1          6           0       -2.860930   -0.192819   -0.005160
      2          1           0       -3.180054    0.269025   -0.940243
      3          1           0       -3.182425    0.289485    0.918720
      4          6           0       -2.103648   -1.294628    0.007968
      5          1           0       -1.780870   -1.776826   -0.915875
      6          1           0       -1.783337   -1.756380    0.943041
      7          6           0        0.476920    0.815557    0.000741
      8          6           0        1.188133   -0.311211   -0.001705
      9          9           0        0.084825    1.427227    1.111788
     10          9           0        0.080426    1.429284   -1.107549
     11          9           0        1.570971   -0.936303    1.107680
     12          9           0        1.566427   -0.934285   -1.113775
 ---------------------------------------------------------------------

 SCF Done:  E(RB97D) =  -553.978896379     A.U. after    1 cycles

 The electronic state is 1-A.
 Alpha  occ. eigenvalues --  -24.31027 -24.31026 -24.30954 -24.30953 -10.08997
 Alpha  occ. eigenvalues --  -10.08871  -9.90828  -9.90740  -1.22058  -1.20776
 Alpha  occ. eigenvalues --   -1.16749  -1.15769  -0.74633  -0.69884  -0.61320
 Alpha  occ. eigenvalues --   -0.56902  -0.56533  -0.53028  -0.52559  -0.50279
 Alpha  occ. eigenvalues --   -0.46217  -0.43679  -0.42724  -0.41436  -0.40929
 Alpha  occ. eigenvalues --   -0.40694  -0.40623  -0.38841  -0.38072  -0.32076
 Alpha  occ. eigenvalues --   -0.25260  -0.22929
 Alpha virt. eigenvalues --   -0.04248  -0.01984  -0.01505  -0.00874   0.00266
 Alpha virt. eigenvalues --    0.01074   0.02051   0.03182   0.04887   0.06312
 Alpha virt. eigenvalues --    0.06755   0.07453   0.07765   0.08561   0.09407

 Mulliken charges:
               1
     1  C   -0.261702
     2  H    0.139605
     3  H    0.139416
     4  C   -0.319667
     5  H    0.149330
     6  H    0.149581
     7  C    0.114692
     8  C    0.144904
     9  F   -0.058118
    10  F   -0.057572
    11  F   -0.070218
    12  F   -0.070251
 Sum of Mulliken charges =   0.00000

 Dipole moment (field-independent basis, Debye):
    X=             -0.1614    Y=              0.0495    Z=             -0.0010  Tot=              0.1688
 Quadrupole moment (field-independent basis, Debye-Ang):
   XX=            -45.0550   YY=            -45.2555   ZZ=            -45.1561
   XY=             -0.2089   XZ=              0.0116   YZ=              0.0068

  Exact polarizability:  53.026 -12.555  58.559   0.072  -0.051  49.284
 Approx polarizability:  81.253 -36.933 110.778   0.194  -0.179  78.056

                      1                      2                      3
                      A                      A                      A
 Frequencies --     15.1992                23.9126                27.5954
 Red. masses --      3.4439                 2.4474                 8.2493
 Frc consts  --      0.0005                 0.0008                 0.0037
 IR Inten    --      0.0106                 0.0387                 0.0066
 Raman Activ --      0.2227                 1.7751                 0.1297

                      4                      5                      6
                      A                      A                      A
 Frequencies --     63.3066                66.1060                67.3096
 Red. masses --      3.1634                 2.6081                 1.3988
 Frc consts  --      0.0075                 0.0067                 0.0037
 IR Inten    --      0.0539                 0.1391                 0.2895
 Raman Activ --      2.7189                 4.5325                 4.3825

                      7                      8                      9
                      A                      A                      A
 Frequencies --    191.4958               214.3759               390.2853
 Red. masses --     18.8653                17.5231                18.8698
 Frc consts  --      0.4076                 0.4745                 1.6935
 IR Inten    --      0.0098                 4.2338                 0.0192
 Raman Activ --      0.0115                 0.0223                 2.2065

                     10                     11                     12
                      A                      A                      A
 Frequencies --    416.2812               489.8747               530.8656
 Red. masses --     13.1067                12.3258                17.4424
 Frc consts  --      1.3382                 1.7428                 2.8962
 IR Inten    --      3.3030                 1.2149                 0.0000
 Raman Activ --      0.3405                14.6323                 2.5805

                     13                     14                     15
                      A                      A                      A
 Frequencies --    534.8186               758.1190               803.1694
 Red. masses --     17.4561                18.6104                 1.0421
 Frc consts  --      2.9418                 6.3020                 0.3961
 IR Inten    --      2.0192                 0.0892                 0.4754
 Raman Activ --      0.0121                11.0016                 0.0131

                     16                     17                     18
                      A                      A                      A
 Frequencies --    929.3713               944.3487              1035.4935
 Red. masses --      1.5114                 1.1630                 1.0080
 Frc consts  --      0.7691                 0.6111                 0.6368
 IR Inten    --      0.6390               110.2941                 0.0295
 Raman Activ --      3.9901                 0.0400                 0.0382

                     19                     20                     21
                      A                      A                      A
 Frequencies --   1131.0786              1208.1545              1256.0082
 Red. masses --     13.9314                 1.5265                12.8115
 Frc consts  --     10.5010                 1.3128                11.9079
 IR Inten    --    339.9059                 0.5027               150.1377
 Raman Activ --      0.0039                 0.2421                 0.0408

                     22                     23                     24
                      A                      A                      A
 Frequencies --   1262.9052              1335.7406              1433.9301
 Red. masses --     13.3497                 1.2319                 1.1123
 Frc consts  --     12.5447                 1.2950                 1.3475
 IR Inten    --    287.3841                 0.0284                 8.1063
 Raman Activ --      0.0190                36.2203                 0.0573

                     25                     26                     27
                      A                      A                      A
 Frequencies --   1637.0773              1844.1875              3050.6131
 Red. masses --      3.0818                12.1798                 1.0478
 Frc consts  --      4.8662                24.4062                 5.7450
 IR Inten    --      0.0022                 0.9317                18.6174
 Raman Activ --     37.5415                21.7719                 1.9933

                     28                     29                     30
                      A                      A                      A
 Frequencies --   3064.8219              3130.9115              3158.5079
 Red. masses --      1.0731                 1.1146                 1.1183
 Frc consts  --      5.9389                 6.4373                 6.5731
 IR Inten    --      0.2528                 0.1411                25.4143
 Raman Activ --    187.0270               109.2089                 1.9384

 - Thermochemistry -
 -------------------
 Temperature   298.150 Kelvin.  Pressure   1.00000 Atm.
 Atom     1 has atomic number  6 and mass  12.00000

 Molecular mass:   128.02491 amu.
 Principal axes and moments of inertia in atomic units:
                           1         2         3
     Eigenvalues --   869.658491384.700661560.50059
           X            0.99861   0.05265   0.00005
           Y           -0.05265   0.99861  -0.00046
           Z           -0.00008   0.00046   1.00000
 This molecule is an asymmetric top.
 Rotational symmetry number  1.
 Warning -- assumption of classical behavior for rotation
           may cause significant error
 Rotational temperatures (Kelvin)      0.09960     0.06255     0.05550
 Rotational constants (GHZ):           2.07523     1.30334     1.15651
 Zero-point vibrational energy     185516.1 (Joules/Mol)
                                   44.33940 (Kcal/Mol)
 Warning -- explicit consideration of  13 degrees of freedom as
           vibrations may cause significant error
 Vibrational temperatures:     21.87    34.40    39.70    91.08    95.11
          (Kelvin)             96.84   275.52   308.44   561.53   598.94
                              704.82   763.80   769.48  1090.76  1155.58
                             1337.16  1358.71  1489.84  1627.37  1738.26
                             1807.11  1817.04  1921.83  2063.10  2355.39
                             2653.37  4389.15  4409.59  4504.68  4544.38

 Zero-point correction=                           0.070659 (Hartree/Particle)
 Thermal correction to Energy=                    0.081322
 Thermal correction to Enthalpy=                  0.082266
 Thermal correction to Gibbs Free Energy=         0.029657
 Sum of electronic and zero-point Energies=           -553.908237
 Sum of electronic and thermal Energies=              -553.897574
 Sum of electronic and thermal Enthalpies=            -553.896630
 Sum of electronic and thermal Free Energies=         -553.949239

                     E (Thermal)             CV                S
                      KCal/Mol        Cal/Mol-Kelvin    Cal/Mol-Kelvin
 Total                   51.030             31.750            110.725
 Electronic               0.000              0.000              0.000
 Translational            0.889              2.981             40.454
 Rotational               0.889              2.981             29.020
 Vibrational             49.253             25.789             41.250
 Vibration     1          0.593              1.986              7.179
 Vibration     2          0.593              1.985              6.279
 Vibration     3          0.593              1.984              5.995
 Vibration     4          0.597              1.972              4.351
 Vibration     5          0.598              1.970              4.266
 Vibration     6          0.598              1.970              4.231
 Vibration     7          0.634              1.852              2.213
 Vibration     8          0.644              1.819              2.006
 Vibration     9          0.758              1.491              0.999
 Vibration    10          0.779              1.435              0.905
 Vibration    11          0.846              1.272              0.684
 Vibration    12          0.886              1.182              0.585
 Vibration    13          0.890              1.173              0.577

 Normal termination of Gaussian 09 at Thu Nov 10 13:00:56 2016.
