 Gaussian 09, Revision D.01,
 Gaussian 09:  ES64L-G09RevD.01 24-Apr-2013

 --------------------------------------------------------------
 # td=(singlet,nstates=50) cam-b3lyp/aug-cc-pvtz geom=check gfp
 --------------------------------------------------------------

 -----
 Title
 -----
 Structure from the checkpoint file:  "c2h4-c2f4-camb3lyp-aug-td.chk"
 Charge =  0 Multiplicity = 1

                         Standard orientation:
 ---------------------------------------------------------------------
 Center     Atomic      Atomic             Coordinates (Angstroms)
 Number     Number       Type             X           Y           Z
 ---------------------------------------------------------------------
      1          6           0       -2.988286   -0.036218    0.003267
      2          1           0       -3.189314    0.499072   -0.914893
      3          1           0       -3.185235    0.491432    0.926716
      4          6           0       -2.525698   -1.272218   -0.002894
      5          1           0       -2.331450   -1.800893   -0.926525
      6          1           0       -2.327376   -1.808544    0.915448
      7          6           0        0.540074    0.755387   -0.000912
      8          6           0        1.299532   -0.316658    0.000767
      9          9           0        0.121386    1.347087    1.093629
     10          9           0        0.122957    1.344803   -1.097281
     11          9           0        1.714716   -0.909424    1.097753
     12          9           0        1.716458   -0.911670   -1.094337
 ---------------------------------------------------------------------

 SCF Done:  E(RCAM-B3LYP) =  -554.158712609     A.U. after   11 cycles

 Excitation energies and oscillator strengths:

 Excited State   1:      Singlet-A      6.4813 eV  191.30 nm  f=0.0273  <S**2>=0.000
      32 -> 33         0.53558
      32 -> 34        -0.14392
      32 -> 36        -0.25402
      32 -> 37        -0.26357
      32 -> 44        -0.11861
 This state for optimization and/or second-order correction.
 Total Energy, E(TD-HF/TD-KS) =  -553.920530689
 Copying the excited state density for this state as the 1-particle RhoCI density.

 Excited State   2:      Singlet-A      6.7216 eV  184.46 nm  f=0.0001  <S**2>=0.000
      31 -> 40        -0.10299
      32 -> 35        -0.33648
      32 -> 40         0.44348
      32 -> 49        -0.19549
      32 -> 51        -0.34009

 Excited State   3:      Singlet-A      7.1117 eV  174.34 nm  f=0.0577  <S**2>=0.000
      31 -> 33         0.58838
      31 -> 37         0.12198
      31 -> 50        -0.12158
      32 -> 33         0.17427
      32 -> 34         0.13146
      32 -> 36         0.14577

 Excited State   4:      Singlet-A      7.2014 eV  172.17 nm  f=0.0180  <S**2>=0.000
      32 -> 34         0.43981
      32 -> 36         0.25905
      32 -> 37        -0.43698
      32 -> 52        -0.11171

 Excited State   5:      Singlet-A      7.5421 eV  164.39 nm  f=0.1448  <S**2>=0.000
      31 -> 34         0.14787
      31 -> 36         0.47686
      31 -> 37        -0.28061
      32 -> 34        -0.21338
      32 -> 36         0.21451
      32 -> 39        -0.19950

 Excited State   6:      Singlet-A      7.6599 eV  161.86 nm  f=0.0000  <S**2>=0.000
      31 -> 35         0.56916
      31 -> 49         0.21179
      32 -> 35         0.30314
      32 -> 51        -0.10615

 Excited State   7:      Singlet-A      7.7175 eV  160.65 nm  f=0.0149  <S**2>=0.000
      31 -> 33        -0.17832
      31 -> 34         0.39606
      31 -> 37        -0.13754
      31 -> 39        -0.14556
      32 -> 33         0.18223
      32 -> 34         0.28242
      32 -> 37         0.31424
      32 -> 41        -0.10662

 Excited State   8:      Singlet-A      7.7299 eV  160.40 nm  f=0.0154  <S**2>=0.000
      31 -> 33        -0.14503
      31 -> 34        -0.34841
      32 -> 33         0.27567
      32 -> 36         0.38134
      32 -> 37         0.21523
      32 -> 41        -0.20568

 Excited State   9:      Singlet-A      7.8722 eV  157.50 nm  f=0.0462  <S**2>=0.000
      31 -> 34        -0.27869
      31 -> 36         0.36454
      31 -> 37        -0.13285
      32 -> 34         0.13794
      32 -> 36        -0.26883
      32 -> 39         0.36236

 Excited State  10:      Singlet-A      8.0872 eV  153.31 nm  f=0.0002  <S**2>=0.000
      30 -> 34         0.13613
      30 -> 36         0.47040
      30 -> 37        -0.33822
      30 -> 39        -0.20668
      32 -> 35        -0.21318
      32 -> 51         0.11897

 Excited State  11:      Singlet-A      8.1199 eV  152.69 nm  f=0.0000  <S**2>=0.000
      30 -> 36         0.18631
      30 -> 37        -0.13409
      31 -> 35        -0.31062
      32 -> 35         0.46237
      32 -> 40         0.10440
      32 -> 51        -0.28273

 Excited State  12:      Singlet-A      8.3326 eV  148.79 nm  f=0.0681  <S**2>=0.000
      31 -> 34         0.18788
      31 -> 36        -0.12832
      31 -> 37        -0.16824
      32 -> 34        -0.25279
      32 -> 36         0.14205
      32 -> 37        -0.14148
      32 -> 39         0.42615
      32 -> 41        -0.19514
      32 -> 43        -0.19160

 Excited State  13:      Singlet-A      8.3383 eV  148.69 nm  f=0.0019  <S**2>=0.000
      31 -> 33        -0.14300
      31 -> 34         0.12299
      31 -> 36         0.19716
      31 -> 37         0.47806
      31 -> 41         0.20373
      32 -> 34        -0.11029
      32 -> 36         0.16067
      32 -> 39         0.16566
      32 -> 41         0.16467

 Excited State  14:      Singlet-A      8.4174 eV  147.30 nm  f=0.3860  <S**2>=0.000
      31 -> 36        -0.14986
      32 -> 34        -0.10161
      32 -> 39         0.19334
      32 -> 41         0.34464
      32 -> 42         0.10275
      32 -> 43         0.50907

 Excited State  15:      Singlet-A      8.5975 eV  144.21 nm  f=0.0001  <S**2>=0.000
      31 -> 38         0.13705
      32 -> 38         0.64018
      32 -> 45        -0.19179

 Excited State  16:      Singlet-A      8.7202 eV  142.18 nm  f=0.0276  <S**2>=0.000
      31 -> 37        -0.13923
      31 -> 42         0.15631
      32 -> 37         0.10789
      32 -> 41         0.40618
      32 -> 42         0.21264
      32 -> 43        -0.36049
      32 -> 46         0.21823

 Excited State  17:      Singlet-A      8.7462 eV  141.76 nm  f=0.0010  <S**2>=0.000
      31 -> 42         0.28840
      31 -> 50        -0.11849
      32 -> 33        -0.18027
      32 -> 41        -0.15675
      32 -> 42         0.47210
      32 -> 44        -0.10841
      32 -> 46        -0.13571
      32 -> 47        -0.11094

 Excited State  18:      Singlet-A      8.7801 eV  141.21 nm  f=0.0017  <S**2>=0.000
      31 -> 38        -0.11972
      31 -> 40         0.11786
      31 -> 51        -0.11428
      32 -> 40         0.50319
      32 -> 49         0.22548
      32 -> 51         0.33291

 Excited State  19:      Singlet-A      8.8886 eV  139.49 nm  f=0.0401  <S**2>=0.000
      31 -> 33        -0.13540
      31 -> 39         0.12349
      31 -> 42         0.44284
      32 -> 42        -0.23452
      32 -> 43         0.11110
      32 -> 44         0.22696
      32 -> 47         0.22621
      32 -> 50        -0.11631

 Excited State  20:      Singlet-A      8.8935 eV  139.41 nm  f=0.0013  <S**2>=0.000
      31 -> 38         0.63940
      31 -> 54        -0.15686
      32 -> 38        -0.11042
      32 -> 45         0.17835

 Excited State  21:      Singlet-A      8.9547 eV  138.46 nm  f=0.0291  <S**2>=0.000
      31 -> 37        -0.13915
      31 -> 41         0.54701
      31 -> 42         0.13307
      31 -> 43         0.29914
      31 -> 46        -0.15747
      32 -> 46        -0.11045

 Excited State  22:      Singlet-A      8.9839 eV  138.01 nm  f=0.0184  <S**2>=0.000
      31 -> 40         0.64241
      32 -> 51        -0.15982

 Excited State  23:      Singlet-A      9.1484 eV  135.53 nm  f=0.0271  <S**2>=0.000
      31 -> 37         0.13347
      31 -> 39        -0.18630
      31 -> 41        -0.16860
      31 -> 43         0.56835
      31 -> 46         0.18440
      32 -> 43         0.10144
      32 -> 46         0.15148

 Excited State  24:      Singlet-A      9.2100 eV  134.62 nm  f=0.0149  <S**2>=0.000
      31 -> 34         0.14731
      31 -> 36         0.10195
      31 -> 39         0.55944
      31 -> 42        -0.13845
      31 -> 43         0.17163
      31 -> 48        -0.11088
      32 -> 39         0.11286
      32 -> 44        -0.10485

 Excited State  25:      Singlet-A      9.2309 eV  134.31 nm  f=0.0001  <S**2>=0.000
      30 -> 33         0.63399
      30 -> 34         0.10447
      30 -> 36         0.15297
      30 -> 37         0.11930
      30 -> 50        -0.13430

 Excited State  26:      Singlet-A      9.3421 eV  132.72 nm  f=0.0173  <S**2>=0.000
      31 -> 39         0.13616
      31 -> 42        -0.20411
      32 -> 34        -0.12727
      32 -> 42         0.22474
      32 -> 44         0.42876
      32 -> 46        -0.10059
      32 -> 47         0.13276
      32 -> 52        -0.27294
      32 -> 53         0.11512
      32 -> 56        -0.10045
      32 -> 64        -0.13173

 Excited State  27:      Singlet-A      9.5121 eV  130.34 nm  f=0.0239  <S**2>=0.000
      31 -> 41         0.13139
      31 -> 42        -0.11148
      32 -> 37        -0.10985
      32 -> 39         0.14492
      32 -> 41        -0.10811
      32 -> 42         0.20902
      32 -> 44         0.11084
      32 -> 46         0.30492
      32 -> 47         0.18944
      32 -> 50         0.10949
      32 -> 52         0.32303
      32 -> 57        -0.20260
      32 -> 64         0.14601

 Excited State  28:      Singlet-A      9.5272 eV  130.14 nm  f=0.0004  <S**2>=0.000
      31 -> 38        -0.12937
      32 -> 38         0.22052
      32 -> 45         0.63671

 Excited State  29:      Singlet-A      9.6618 eV  128.32 nm  f=0.0003  <S**2>=0.000
      29 -> 34         0.14042
      29 -> 36         0.49457
      29 -> 37        -0.35700
      29 -> 39        -0.22635
      29 -> 48         0.11924

 Excited State  30:      Singlet-A      9.7838 eV  126.72 nm  f=0.0292  <S**2>=0.000
      30 -> 35        -0.20872
      31 -> 44         0.43295
      32 -> 42        -0.10448
      32 -> 44         0.18970
      32 -> 47        -0.27511
      32 -> 48        -0.14559
      32 -> 50         0.19872

 Excited State  31:      Singlet-A      9.7859 eV  126.70 nm  f=0.0372  <S**2>=0.000
      31 -> 44         0.17861
      31 -> 46         0.18462
      31 -> 47         0.18329
      31 -> 50         0.12642
      32 -> 46        -0.20478
      32 -> 47         0.20400
      32 -> 48         0.45655
      32 -> 50         0.15432

 Excited State  32:      Singlet-A      9.8305 eV  126.12 nm  f=0.0676  <S**2>=0.000
      30 -> 34         0.61535
      30 -> 36        -0.20777
      30 -> 39        -0.12422
      30 -> 44         0.14144
      30 -> 47        -0.11263

 Excited State  33:      Singlet-A      9.8464 eV  125.92 nm  f=0.0023  <S**2>=0.000
      31 -> 35        -0.21293
      31 -> 49         0.48104
      31 -> 51        -0.10613
      31 -> 58         0.11369
      32 -> 49         0.34466
      32 -> 51        -0.13809
      32 -> 55         0.10319

 Excited State  34:      Singlet-A      9.8650 eV  125.68 nm  f=0.0173  <S**2>=0.000
      30 -> 35        -0.15862
      31 -> 41         0.11502
      31 -> 46         0.20482
      31 -> 47         0.29067
      32 -> 44        -0.19363
      32 -> 46         0.29297
      32 -> 47         0.13710
      32 -> 48        -0.10612
      32 -> 50        -0.21653
      32 -> 52        -0.18974
      32 -> 57         0.12130

 Excited State  35:      Singlet-A      9.8951 eV  125.30 nm  f=0.0405  <S**2>=0.000
      30 -> 35         0.54899
      30 -> 49         0.15731
      31 -> 48         0.11664
      32 -> 46         0.18937
      32 -> 47        -0.19004
      32 -> 52        -0.11165

 Excited State  36:      Singlet-A      9.9176 eV  125.01 nm  f=0.0145  <S**2>=0.000
      30 -> 35        -0.16918
      31 -> 46        -0.15722
      31 -> 47        -0.20931
      31 -> 48        -0.11466
      32 -> 41        -0.11246
      32 -> 46         0.24379
      32 -> 47        -0.21054
      32 -> 48         0.38839
      32 -> 50        -0.13623
      32 -> 52        -0.19094

 Excited State  37:      Singlet-A      9.9761 eV  124.28 nm  f=0.0001  <S**2>=0.000
      30 -> 35        -0.15964
      31 -> 34         0.10782
      31 -> 42         0.15113
      31 -> 44        -0.35155
      31 -> 47         0.19460
      32 -> 46         0.11158
      32 -> 47        -0.15624
      32 -> 50         0.40444
      32 -> 52        -0.10922
      32 -> 53         0.12101
      32 -> 57        -0.11214

 Excited State  38:      Singlet-A     10.1061 eV  122.68 nm  f=0.0208  <S**2>=0.000
      31 -> 37         0.11871
      31 -> 41        -0.14794
      31 -> 42         0.11673
      31 -> 46        -0.37772
      31 -> 48         0.22466
      31 -> 50         0.38324
      31 -> 57         0.10512
      32 -> 47         0.10418
      32 -> 57         0.12551

 Excited State  39:      Singlet-A     10.1561 eV  122.08 nm  f=0.0008  <S**2>=0.000
      31 -> 35         0.10723
      31 -> 49        -0.34130
      32 -> 49         0.37178
      32 -> 51        -0.16893
      32 -> 54         0.23746
      32 -> 55         0.30366
      32 -> 58        -0.11821

 Excited State  40:      Singlet-A     10.2077 eV  121.46 nm  f=0.0012  <S**2>=0.000
      31 -> 44         0.18081
      31 -> 47        -0.22744
      31 -> 48        -0.16794
      31 -> 50        -0.11957
      31 -> 53        -0.10888
      32 -> 44        -0.25166
      32 -> 47         0.27309
      32 -> 48        -0.12977
      32 -> 50         0.30658
      32 -> 52        -0.20840
      32 -> 53         0.10417
      32 -> 57        -0.13131

 Excited State  41:      Singlet-A     10.3053 eV  120.31 nm  f=0.0108  <S**2>=0.000
      31 -> 45         0.64064
      31 -> 54        -0.13024
      31 -> 62         0.10816

 Excited State  42:      Singlet-A     10.3340 eV  119.98 nm  f=0.0006  <S**2>=0.000
      31 -> 41        -0.14455
      31 -> 42        -0.12135
      31 -> 46        -0.32528
      31 -> 47         0.41339
      31 -> 48        -0.32235
      31 -> 53        -0.11207
      32 -> 53        -0.10154

 Excited State  43:      Singlet-A     10.3811 eV  119.43 nm  f=0.0006  <S**2>=0.000
      30 -> 33        -0.15606
      30 -> 36         0.30649
      30 -> 37         0.49007
      30 -> 41         0.27511
      30 -> 42        -0.15122

 Excited State  44:      Singlet-A     10.4362 eV  118.80 nm  f=0.0055  <S**2>=0.000
      31 -> 44        -0.13323
      31 -> 46         0.18800
      31 -> 48        -0.36500
      31 -> 50         0.40308
      31 -> 53        -0.16981
      32 -> 53        -0.21714

 Excited State  45:      Singlet-A     10.6217 eV  116.73 nm  f=0.0142  <S**2>=0.000
      31 -> 45        -0.18933
      31 -> 51         0.38595
      31 -> 54        -0.13397
      31 -> 55        -0.25595
      31 -> 58        -0.17346
      31 -> 60        -0.10815
      32 -> 49         0.23294
      32 -> 54        -0.18875
      32 -> 55        -0.27917

 Excited State  46:      Singlet-A     10.6881 eV  116.00 nm  f=0.0001  <S**2>=0.000
      31 -> 49         0.23989
      31 -> 51         0.31224
      31 -> 55        -0.16281
      32 -> 49        -0.22010
      32 -> 51         0.26066
      32 -> 54         0.27667
      32 -> 55         0.28296
      32 -> 58        -0.11513

 Excited State  47:      Singlet-A     10.7509 eV  115.32 nm  f=0.0072  <S**2>=0.000
      31 -> 48        -0.15198
      31 -> 50         0.18832
      31 -> 52         0.27358
      31 -> 56        -0.21325
      32 -> 50        -0.10082
      32 -> 52         0.19892
      32 -> 53         0.33257
      32 -> 56        -0.24377
      32 -> 57        -0.19441

 Excited State  48:      Singlet-A     10.8127 eV  114.67 nm  f=0.0191  <S**2>=0.000
      31 -> 52         0.31700
      31 -> 56        -0.20934
      32 -> 44         0.14084
      32 -> 46         0.10718
      32 -> 47         0.11769
      32 -> 50         0.17127
      32 -> 57         0.44287

 Excited State  49:      Singlet-A     10.8911 eV  113.84 nm  f=0.0003  <S**2>=0.000
      31 -> 38         0.14776
      31 -> 54         0.49928
      31 -> 55        -0.13340
      32 -> 54         0.29489
      32 -> 55        -0.28078

 Excited State  50:      Singlet-A     10.9069 eV  113.68 nm  f=0.0001  <S**2>=0.000
      30 -> 33        -0.12307
      30 -> 39         0.19217
      30 -> 41         0.17922
      30 -> 42         0.57351
      30 -> 44         0.11503
      30 -> 47         0.12303
      30 -> 50        -0.10260

 The electronic state is 1-A.
 Alpha  occ. eigenvalues --  -24.82366 -24.82366 -24.82312 -24.82311 -10.44081
 Alpha  occ. eigenvalues --  -10.43948 -10.25113 -10.25005  -1.40721  -1.39224
 Alpha  occ. eigenvalues --   -1.34796  -1.33619  -0.90056  -0.85301  -0.75258
 Alpha  occ. eigenvalues --   -0.71045  -0.70052  -0.66140  -0.65364  -0.64982
 Alpha  occ. eigenvalues --   -0.60356  -0.57557  -0.55364  -0.54880  -0.54481
 Alpha  occ. eigenvalues --   -0.54139  -0.53450  -0.52029  -0.49741  -0.42524
 Alpha  occ. eigenvalues --   -0.34879  -0.33024
 Alpha virt. eigenvalues --    0.01098   0.02359   0.02661   0.02939   0.03292
 Alpha virt. eigenvalues --    0.05022   0.05355   0.05853   0.06923   0.07624
 Alpha virt. eigenvalues --    0.07755   0.09446   0.09572   0.09808   0.10005

 Mulliken charges:
               1
     1  C   -0.660047
     2  H    0.326217
     3  H    0.325580
     4  C   -0.655580
     5  H    0.328074
     6  H    0.328752
     7  C    0.611908
     8  C    0.532593
     9  F   -0.298394
    10  F   -0.298459
    11  F   -0.270334
    12  F   -0.270311
 Sum of Mulliken charges =   0.00000

 Dipole moment (field-independent basis, Debye):
    X=             -0.1941    Y=              0.0103    Z=              0.0000  Tot=              0.1943
 Quadrupole moment (field-independent basis, Debye-Ang):
   XX=            -45.5920   YY=            -44.4235   ZZ=            -45.2895
   XY=              0.3837   XZ=              0.0016   YZ=              0.0011

 Normal termination of Gaussian 09 at Thu Nov 17 13:33:54 2016.
