 Gaussian 09, Revision D.01,
 Gaussian 09:  ES64L-G09RevD.01 24-Apr-2013

 -----------------------------------------
 # opt=tight freq MP2(full)/6-311++g** gfp
 -----------------------------------------

 -------
 HNC-HCN
 -------
 Symbolic Z-matrix:
 Charge =  0 Multiplicity = 1

 SCF Done:  E(RHF) =  -92.8403099216     A.U. after   10 cycles
 E2 =    -0.3126570454D+00 EUMP2 =    -0.93152966966990D+02
 SCF Done:  E(RHF) =  -92.8988260638     A.U. after   11 cycles
 E2 =    -0.3293389689D+00 EUMP2 =    -0.93228165032710D+02
 SCF Done:  E(RHF) =  -92.8934324978     A.U. after   11 cycles
 E2 =    -0.3440935977D+00 EUMP2 =    -0.93237526095514D+02
 SCF Done:  E(RHF) =  -92.8977437146     A.U. after    9 cycles
 E2 =    -0.3426251754D+00 EUMP2 =    -0.93240368889931D+02
 SCF Done:  E(RHF) =  -92.8970068693     A.U. after    9 cycles
 E2 =    -0.3435407987D+00 EUMP2 =    -0.93240547668030D+02
 SCF Done:  E(RHF) =  -92.8966835462     A.U. after    8 cycles
 E2 =    -0.3438696948D+00 EUMP2 =    -0.93240553241032D+02
 SCF Done:  E(RHF) =  -92.8966547055     A.U. after    7 cycles
 E2 =    -0.3438985738D+00 EUMP2 =    -0.93240553279381D+02
 Optimization completed.
    -- Stationary point found.
 Normal termination of Gaussian 09 at Fri Sep 30 11:37:08 2016.

 ----------------------------------------------------------------------
 #N Geom=AllCheck Guess=TCheck SCRF=Check GenChk RMP2-Full/6-311++G(d,p
 ) Freq
 ----------------------------------------------------------------------

 Structure from the checkpoint file:  "HNCMP2full.chk"
 -------
 HNC-HCN
 -------
 Charge =  0 Multiplicity = 1

                         Standard orientation:
 ---------------------------------------------------------------------
 Center     Atomic      Atomic             Coordinates (Angstroms)
 Number     Number       Type             X           Y           Z
 ---------------------------------------------------------------------
      1          7           0        0.000000    0.000000    0.661467
      2          6           0        0.000000    0.000000   -0.508974
      3          1           0        0.000000    0.000000   -1.576426
 ---------------------------------------------------------------------

 SCF Done:  E(RHF) =  -92.8966547055     A.U. after    1 cycles
 E2 =    -0.3438985743D+00 EUMP2 =    -0.93240553279793D+02
 E2 =    -0.3438985743D+00 EUMP2 =    -0.93240553279793D+02

 The electronic state is 1-SG.
 Alpha  occ. eigenvalues --  -15.60874 -11.30102  -1.23341  -0.81588  -0.58426
 Alpha  occ. eigenvalues --   -0.49313  -0.49313
 Alpha virt. eigenvalues --    0.03570   0.08711   0.08953   0.08953   0.16843
 Alpha virt. eigenvalues --    0.17108   0.17108   0.20825   0.27392   0.27392
 Alpha virt. eigenvalues --    0.28156   0.33753   0.53251   0.70256   0.70256

 Mulliken charges:
               1
     1  N   -0.225790
     2  C    0.014049
     3  H    0.211741
 Sum of Mulliken charges =   0.00000

 Dipole moment (field-independent basis, Debye):
    X=              0.0000    Y=              0.0000    Z=             -3.3177  Tot=              3.3177
 Quadrupole moment (field-independent basis, Debye-Ang):
   XX=            -12.0549   YY=            -12.0549   ZZ=             -9.6987
   XY=              0.0000   XZ=              0.0000   YZ=              0.0000

  Exact polarizability:  10.154   0.000  10.154   0.000   0.000  21.835
 Approx polarizability:   8.656   0.000   8.656   0.000   0.000  23.772

                      1                      2                      3
                     PI                     PI                     SG
 Frequencies --    735.5432               735.5432              2020.7822
 Red. masses --      1.3373                 1.3373                 5.7463
 Frc consts  --      0.4263                 0.4263                13.8253
 IR Inten    --     43.0425                43.0425                 0.2533

                      4
                     SG
 Frequencies --   3489.7905
 Red. masses --      1.1602
 Frc consts  --      8.3253
 IR Inten    --     77.4773

 - Thermochemistry -
 -------------------
 Temperature   298.150 Kelvin.  Pressure   1.00000 Atm.
 Atom     1 has atomic number  7 and mass  14.00307

 Molecular mass:    27.01090 amu.
 Principal axes and moments of inertia in atomic units:
                           1         2         3
     Eigenvalues --     0.00000  41.60044  41.60044
           X            0.00000   0.00000   1.00000
           Y            0.00000   1.00000   0.00000
           Z            1.00000   0.00000   0.00000
 This molecule is a prolate symmetric top.
 Rotational symmetry number  1.
 Rotational temperature (Kelvin)      2.08204
 Rotational constant (GHZ):          43.382739
 Zero-point vibrational energy      41759.6 (Joules/Mol)
                                    9.98078 (Kcal/Mol)
 Vibrational temperatures:   1058.28  1058.28  2907.45  5021.02
          (Kelvin)

 Zero-point correction=                           0.015905 (Hartree/Particle)
 Thermal correction to Energy=                    0.018465
 Thermal correction to Enthalpy=                  0.019409
 Thermal correction to Gibbs Free Energy=        -0.003494
 Sum of electronic and zero-point Energies=            -93.224648
 Sum of electronic and thermal Energies=               -93.222089
 Sum of electronic and thermal Enthalpies=             -93.221144
 Sum of electronic and thermal Free Energies=          -93.244047

                     E (Thermal)             CV                S
                      KCal/Mol        Cal/Mol-Kelvin    Cal/Mol-Kelvin
 Total                   11.587              6.505             48.203
 Electronic               0.000              0.000              0.000
 Translational            0.889              2.981             35.816
 Rotational               0.592              1.987             11.852
 Vibrational             10.106              1.537              0.535

 Optimization completed.
    -- Stationary point found.
 Normal termination of Gaussian 09 at Fri Sep 30 11:37:17 2016.
