 Gaussian 09, Revision D.01,
 Gaussian 09:  ES64L-G09RevD.01 24-Apr-2013

 ------------------------------------
 # opt=tight MP2(full)/6-311++g** gfp
 ------------------------------------

 -------
 HNC-HCN
 -------
 Symbolic Z-matrix:
 Charge =  0 Multiplicity = 1

 SCF Done:  E(RHF) =  -92.7520603033     A.U. after   10 cycles
 E2 =    -0.3151188221D+00 EUMP2 =    -0.93067179125394D+02
 SCF Done:  E(RHF) =  -92.8463880447     A.U. after   11 cycles
 E2 =    -0.3197718923D+00 EUMP2 =    -0.93166159937006D+02
 SCF Done:  E(RHF) =  -92.6787290889     A.U. after   11 cycles
 E2 =    -0.3182721291D+00 EUMP2 =    -0.92997001218000D+02
 SCF Done:  E(RHF) =  -92.8835234737     A.U. after   10 cycles
 E2 =    -0.3260517230D+00 EUMP2 =    -0.93209575196707D+02
 SCF Done:  E(RHF) =  -92.8837075039     A.U. after    9 cycles
 E2 =    -0.3268840235D+00 EUMP2 =    -0.93210591527432D+02
 SCF Done:  E(RHF) =  -92.8829919282     A.U. after    9 cycles
 E2 =    -0.3278153169D+00 EUMP2 =    -0.93210807245102D+02
 SCF Done:  E(RHF) =  -92.8823487849     A.U. after    8 cycles
 E2 =    -0.3285097540D+00 EUMP2 =    -0.93210858538922D+02
 SCF Done:  E(RHF) =  -92.8823460670     A.U. after    6 cycles
 E2 =    -0.3285126525D+00 EUMP2 =    -0.93210858719578D+02
 SCF Done:  E(RHF) =  -92.8823471761     A.U. after    4 cycles
 E2 =    -0.3285115474D+00 EUMP2 =    -0.93210858723525D+02
 Optimization completed.
    -- Stationary point found.

                         Standard orientation:
 ---------------------------------------------------------------------
 Center     Atomic      Atomic             Coordinates (Angstroms)
 Number     Number       Type             X           Y           Z
 ---------------------------------------------------------------------
      1          7           0        0.000000    0.000000    0.434521
      2          6           0        0.000000    0.000000   -0.746054
      3          1           0        0.000000    0.000000    1.434675
 ---------------------------------------------------------------------

 The electronic state is 1-SG.
 Alpha  occ. eigenvalues --  -15.60921 -11.30656  -1.26405  -0.87567  -0.51831
 Alpha  occ. eigenvalues --   -0.51831  -0.49464
 Alpha virt. eigenvalues --    0.03807   0.10141   0.10797   0.10797   0.13723
 Alpha virt. eigenvalues --    0.16531   0.16531   0.21818   0.25924   0.25924
 Alpha virt. eigenvalues --    0.28516   0.36756   0.54821   0.64978   0.73885

 Mulliken charges:
               1
     1  N   -0.243958
     2  C   -0.082240
     3  H    0.326199
 Sum of Mulliken charges =   0.00000

 Dipole moment (field-independent basis, Debye):
    X=              0.0000    Y=              0.0000    Z=              2.8248  Tot=              2.8248
 Quadrupole moment (field-independent basis, Debye-Ang):
   XX=            -12.2543   YY=            -12.2543   ZZ=            -10.2572
   XY=              0.0000   XZ=              0.0000   YZ=              0.0000

 Normal termination of Gaussian 09 at Fri Sep 30 11:34:00 2016.
