 Gaussian 09, Revision D.01,
 Gaussian 09:  ES64L-G09RevD.01 24-Apr-2013

 -------------------------------------
 # opt=tight freq B3LYP/6-311++g** gfp
 -------------------------------------

 -------
 HNC-HCN
 -------
 Symbolic Z-matrix:
 Charge =  0 Multiplicity = 1

 SCF Done:  E(RB3LYP) =  -93.3802270016     A.U. after    9 cycles
 SCF Done:  E(RB3LYP) =  -93.4456147755     A.U. after    9 cycles
 SCF Done:  E(RB3LYP) =  -93.4529064597     A.U. after    9 cycles
 SCF Done:  E(RB3LYP) =  -93.4544075512     A.U. after    8 cycles
 SCF Done:  E(RB3LYP) =  -93.4545030256     A.U. after    8 cycles
 SCF Done:  E(RB3LYP) =  -93.4545043044     A.U. after    7 cycles
 SCF Done:  E(RB3LYP) =  -93.4545043135     A.U. after    5 cycles
 Optimization completed.
    -- Stationary point found.
 Normal termination of Gaussian 09 at Fri Sep 30 11:34:16 2016.

 ----------------------------------------------------------------------
 #N Geom=AllCheck Guess=TCheck SCRF=Check GenChk RB3LYP/6-311++G(d,p) F
 req
 ----------------------------------------------------------------------

 Structure from the checkpoint file:  "HNC0B3LYP.chk"
 -------
 HNC-HCN
 -------
 Charge =  0 Multiplicity = 1

                         Standard orientation:
 ---------------------------------------------------------------------
 Center     Atomic      Atomic             Coordinates (Angstroms)
 Number     Number       Type             X           Y           Z
 ---------------------------------------------------------------------
      1          7           0        0.000000    0.000000    0.650770
      2          6           0        0.000000    0.000000   -0.498362
      3          1           0        0.000000    0.000000   -1.565213
 ---------------------------------------------------------------------

 SCF Done:  E(RB3LYP) =  -93.4545043135     A.U. after    1 cycles

 The electronic state is 1-SG.
 Alpha  occ. eigenvalues --  -14.34508 -10.23183  -0.93650  -0.61724  -0.39415
 Alpha  occ. eigenvalues --   -0.37488  -0.37488
 Alpha virt. eigenvalues --   -0.00902  -0.00902  -0.00537   0.02722   0.06839
 Alpha virt. eigenvalues --    0.06839   0.10961   0.11720   0.17885   0.17885
 Alpha virt. eigenvalues --    0.19764   0.24945   0.39464   0.51748   0.51748

 Mulliken charges:
               1
     1  N   -0.239208
     2  C    0.063668
     3  H    0.175540
 Sum of Mulliken charges =   0.00000

 Dipole moment (field-independent basis, Debye):
    X=              0.0000    Y=              0.0000    Z=             -3.0545  Tot=              3.0545
 Quadrupole moment (field-independent basis, Debye-Ang):
   XX=            -11.8409   YY=            -11.8409   ZZ=             -9.9535
   XY=              0.0000   XZ=              0.0000   YZ=              0.0000

  Exact polarizability:  10.450   0.000  10.450   0.000   0.000  22.639
 Approx polarizability:  12.868   0.000  12.868   0.000   0.000  40.599

                      1                      2                      3
                     PI                     PI                     SG
 Frequencies --    766.0643               766.0643              2195.6548
 Red. masses --      1.3439                 1.3439                 5.0551
 Frc consts  --      0.4647                 0.4647                14.3585
 IR Inten    --     42.3849                42.3849                 1.9331

                      4
                     SG
 Frequencies --   3453.0645
 Red. masses --      1.1932
 Frc consts  --      8.3823
 IR Inten    --     67.2528

 - Thermochemistry -
 -------------------
 Temperature   298.150 Kelvin.  Pressure   1.00000 Atm.
 Atom     1 has atomic number  7 and mass  14.00307

 Molecular mass:    27.01090 amu.
 Principal axes and moments of inertia in atomic units:
                           1         2         3
     Eigenvalues --     0.00000  40.31818  40.31818
           X            0.00000   0.00000   1.00000
           Y            0.00000   1.00000   0.00000
           Z            1.00000   0.00000   0.00000
 This molecule is a prolate symmetric top.
 Rotational symmetry number  1.
 Rotational temperature (Kelvin)      2.14826
 Rotational constant (GHZ):          44.762462
 Zero-point vibrational energy      42951.0 (Joules/Mol)
                                   10.26554 (Kcal/Mol)
 Vibrational temperatures:   1102.19  1102.19  3159.05  4968.18
          (Kelvin)

 Zero-point correction=                           0.016359 (Hartree/Particle)
 Thermal correction to Energy=                    0.018897
 Thermal correction to Enthalpy=                  0.019842
 Thermal correction to Gibbs Free Energy=        -0.003003
 Sum of electronic and zero-point Energies=            -93.438145
 Sum of electronic and thermal Energies=               -93.435607
 Sum of electronic and thermal Enthalpies=             -93.434663
 Sum of electronic and thermal Free Energies=          -93.457507

                     E (Thermal)             CV                S
                      KCal/Mol        Cal/Mol-Kelvin    Cal/Mol-Kelvin
 Total                   11.858              6.390             48.080
 Electronic               0.000              0.000              0.000
 Translational            0.889              2.981             35.816
 Rotational               0.592              1.987             11.790
 Vibrational             10.377              1.422              0.474

 Optimization completed.
    -- Stationary point found.
 Normal termination of Gaussian 09 at Fri Sep 30 11:34:21 2016.
