 Gaussian 09, Revision D.01,
 Gaussian 09:  ES64L-G09RevD.01 24-Apr-2013

 ---------------------------------------
 # opt=(tight) freq B3LYP/6-311++g** gfp
 ---------------------------------------

 -------
 HNC-HCN
 -------
 Symbolic Z-matrix:
 Charge =  0 Multiplicity = 1

 SCF Done:  E(RB3LYP) =  -93.2983617141     A.U. after   10 cycles
 SCF Done:  E(RB3LYP) =  -93.3909949395     A.U. after    9 cycles
 SCF Done:  E(RB3LYP) =  -93.2612741851     A.U. after    9 cycles
 SCF Done:  E(RB3LYP) =  -93.4214566609     A.U. after    9 cycles
 SCF Done:  E(RB3LYP) =  -93.4298012774     A.U. after    9 cycles
 SCF Done:  E(RB3LYP) =  -93.4315513309     A.U. after    8 cycles
 SCF Done:  E(RB3LYP) =  -93.4315531287     A.U. after    6 cycles
 SCF Done:  E(RB3LYP) =  -93.4315531848     A.U. after    6 cycles
 Optimization completed.
    -- Stationary point found.
 Normal termination of Gaussian 09 at Fri Sep 30 11:30:48 2016.

 ----------------------------------------------------------------------
 #N Geom=AllCheck Guess=TCheck SCRF=Check GenChk RB3LYP/6-311++G(d,p) F
 req
 ----------------------------------------------------------------------

 Structure from the checkpoint file:  "HNC0B3LYP.chk"
 -------
 HNC-HCN
 -------
 Charge =  0 Multiplicity = 1

                         Standard orientation:
 ---------------------------------------------------------------------
 Center     Atomic      Atomic             Coordinates (Angstroms)
 Number     Number       Type             X           Y           Z
 ---------------------------------------------------------------------
      1          7           0        0.000000    0.000000    0.429580
      2          6           0        0.000000    0.000000   -0.739377
      3          1           0        0.000000    0.000000    1.429197
 ---------------------------------------------------------------------

 SCF Done:  E(RB3LYP) =  -93.4315531848     A.U. after    1 cycles

 The electronic state is 1-SG.
 Alpha  occ. eigenvalues --  -14.36336 -10.23500  -0.96233  -0.67904  -0.39062
 Alpha  occ. eigenvalues --   -0.39062  -0.33033
 Alpha virt. eigenvalues --   -0.01421  -0.00281  -0.00281   0.04599   0.07185
 Alpha virt. eigenvalues --    0.07185   0.08668   0.11459   0.15841   0.15841
 Alpha virt. eigenvalues --    0.19914   0.27725   0.41006   0.48897   0.55057

 Mulliken charges:
               1
     1  N   -0.120624
     2  C   -0.157236
     3  H    0.277860
 Sum of Mulliken charges =   0.00000

 Dipole moment (field-independent basis, Debye):
    X=              0.0000    Y=              0.0000    Z=              3.0694  Tot=              3.0694
 Quadrupole moment (field-independent basis, Debye-Ang):
   XX=            -12.1833   YY=            -12.1833   ZZ=            -10.5163
   XY=              0.0000   XZ=              0.0000   YZ=              0.0000

  Exact polarizability:  12.577   0.000  12.577   0.000   0.000  23.423
 Approx polarizability:  15.866   0.000  15.866   0.000   0.000  37.677

                      1                      2                      3
                     PI                     PI                     SG
 Frequencies --    494.1973               494.1973              2095.2385
 Red. masses --      1.2897                 1.2897                 6.9819
 Frc consts  --      0.1856                 0.1856                18.0590
 IR Inten    --    161.4544               161.4544                74.7085

                      4
                     SG
 Frequencies --   3807.8161
 Red. masses --      1.1202
 Frc consts  --      9.5698
 IR Inten    --    271.4713

 - Thermochemistry -
 -------------------
 Temperature   298.150 Kelvin.  Pressure   1.00000 Atm.
 Atom     1 has atomic number  7 and mass  14.00307

 Molecular mass:    27.01090 amu.
 Principal axes and moments of inertia in atomic units:
                           1         2         3
     Eigenvalues --     0.00000  39.74071  39.74071
           X            0.00000   0.00000   1.00000
           Y            0.00000   1.00000   0.00000
           Z            1.00000   0.00000   0.00000
 This molecule is a prolate symmetric top.
 Rotational symmetry number  1.
 Rotational temperature (Kelvin)      2.17947
 Rotational constant (GHZ):          45.412905
 Zero-point vibrational energy      41220.0 (Joules/Mol)
                                    9.85182 (Kcal/Mol)
 Warning -- explicit consideration of   2 degrees of freedom as
           vibrations may cause significant error
 Vibrational temperatures:    711.04   711.04  3014.58  5478.59
          (Kelvin)

 Zero-point correction=                           0.015700 (Hartree/Particle)
 Thermal correction to Energy=                    0.018518
 Thermal correction to Enthalpy=                  0.019462
 Thermal correction to Gibbs Free Energy=        -0.003784
 Sum of electronic and zero-point Energies=            -93.415853
 Sum of electronic and thermal Energies=               -93.413036
 Sum of electronic and thermal Enthalpies=             -93.412091
 Sum of electronic and thermal Free Energies=          -93.435337

                     E (Thermal)             CV                S
                      KCal/Mol        Cal/Mol-Kelvin    Cal/Mol-Kelvin
 Total                   11.620              7.502             48.924
 Electronic               0.000              0.000              0.000
 Translational            0.889              2.981             35.816
 Rotational               0.592              1.987             11.761
 Vibrational             10.139              2.534              1.346
 Vibration     1          0.850              1.263              0.673
 Vibration     2          0.850              1.263              0.673

 Optimization completed.
    -- Stationary point found.
 Normal termination of Gaussian 09 at Fri Sep 30 11:30:53 2016.
