 Gaussian 09, Revision D.01,
 Gaussian 09:  ES64L-G09RevD.01 24-Apr-2013

 ----------------------------------------
 # opt=tight freq CISD(fc)/6-311++g** gfp
 ----------------------------------------

 -------
 HNC-HCN
 -------
 Symbolic Z-matrix:
 Charge =  0 Multiplicity = 1

 SCF Done:  E(RHF) =  -92.7520603033     A.U. after   10 cycles
 E2 =    -0.2773188220D+00 EUMP2 =    -0.93029379125269D+02
 SCF Done:  E(RHF) =  -92.8451201997     A.U. after   11 cycles
 E2 =    -0.2817221374D+00 EUMP2 =    -0.93126842337124D+02
 SCF Done:  E(RHF) =  -92.7099041793     A.U. after   11 cycles
 E2 =    -0.2798153146D+00 EUMP2 =    -0.92989719493897D+02
 SCF Done:  E(RHF) =  -92.8842352923     A.U. after   10 cycles
 E2 =    -0.2873267098D+00 EUMP2 =    -0.93171562002166D+02
 SCF Done:  E(RHF) =  -92.8844028929     A.U. after    9 cycles
 E2 =    -0.2881545754D+00 EUMP2 =    -0.93172557468267D+02
 SCF Done:  E(RHF) =  -92.8840475575     A.U. after    9 cycles
 E2 =    -0.2889564100D+00 EUMP2 =    -0.93173003967493D+02
 SCF Done:  E(RHF) =  -92.8837848941     A.U. after    8 cycles
 E2 =    -0.2894172180D+00 EUMP2 =    -0.93173202112102D+02
 SCF Done:  E(RHF) =  -92.8837851802     A.U. after    6 cycles
 E2 =    -0.2894172869D+00 EUMP2 =    -0.93173202467076D+02
 SCF Done:  E(RHF) =  -92.8837855642     A.U. after    4 cycles
 E2 =    -0.2894167106D+00 EUMP2 =    -0.93173202274793D+02
 Optimization completed.
    -- Stationary point found.
 Normal termination of Gaussian 09 at Fri Sep 30 11:31:42 2016.

 ----------------------------------------------------------------------
 #N Geom=AllCheck Guess=TCheck SCRF=Check GenChk RCISD(FC)/6-311++G(d,p
 ) Freq
 ----------------------------------------------------------------------

 Structure from the checkpoint file:  "HNC0CISDfc.chk"
 -------
 HNC-HCN
 -------
 Charge =  0 Multiplicity = 1

                         Standard orientation:
 ---------------------------------------------------------------------
 Center     Atomic      Atomic             Coordinates (Angstroms)
 Number     Number       Type             X           Y           Z
 ---------------------------------------------------------------------
      1          7           0        0.000000    0.000000    0.429686
      2          6           0        0.000000    0.000000   -0.738780
      3          1           0        0.000000    0.000000    1.424874
 ---------------------------------------------------------------------

 SCF Done:  E(RHF) =  -92.8837855642     A.U. after    1 cycles
 E2 =    -0.2894167103D+00 EUMP2 =    -0.93173202274476D+02
 E2 =    -0.2894167755D+00 EUMP2 =    -0.93173202247924D+02
 E2 =    -0.2894167755D+00 EUMP2 =    -0.93173202247924D+02
 SCF Done:  E(RHF) =  -92.8837170272     A.U. after    7 cycles
 E2 =    -0.2895232146D+00 EUMP2 =    -0.93173240241763D+02
 SCF Done:  E(RHF) =  -92.8838478196     A.U. after    8 cycles
 E2 =    -0.2893103643D+00 EUMP2 =    -0.93173158183942D+02
 SCF Done:  E(RHF) =  -92.8837855184     A.U. after    6 cycles
 E2 =    -0.2894167662D+00 EUMP2 =    -0.93173202284558D+02
 SCF Done:  E(RHF) =  -92.8837855184     A.U. after    6 cycles
 E2 =    -0.2894167662D+00 EUMP2 =    -0.93173202284558D+02
 SCF Done:  E(RHF) =  -92.8838676626     A.U. after    7 cycles
 E2 =    -0.2892821940D+00 EUMP2 =    -0.93173149856549D+02
 SCF Done:  E(RHF) =  -92.8836992062     A.U. after    7 cycles
 E2 =    -0.2895514127D+00 EUMP2 =    -0.93173250618951D+02
 SCF Done:  E(RHF) =  -92.8837855413     A.U. after    6 cycles
 E2 =    -0.2894167226D+00 EUMP2 =    -0.93173202263862D+02
 SCF Done:  E(RHF) =  -92.8837855413     A.U. after    6 cycles
 E2 =    -0.2894167226D+00 EUMP2 =    -0.93173202263862D+02
 SCF Done:  E(RHF) =  -92.8837657730     A.U. after    7 cycles
 E2 =    -0.2894449060D+00 EUMP2 =    -0.93173210679060D+02
 SCF Done:  E(RHF) =  -92.8838034370     A.U. after    7 cycles
 E2 =    -0.2893885356D+00 EUMP2 =    -0.93173191972611D+02

 Alpha  occ. eigenvalues --  -15.60740 -11.30129  -1.27038  -0.87970  -0.52252
 Alpha  occ. eigenvalues --   -0.52252  -0.49230
 Alpha virt. eigenvalues --    0.03790   0.10151   0.10872   0.10872   0.13757
 Alpha virt. eigenvalues --    0.16655   0.16655   0.21873   0.26150   0.26150
 Alpha virt. eigenvalues --    0.28573   0.36828   0.55078   0.65349   0.73919

 Mulliken charges:
               1
     1  N   -0.144008
     2  C   -0.153822
     3  H    0.297831
 Sum of Mulliken charges =   0.00000

 Dipole moment (field-independent basis, Debye):
    X=              0.0000    Y=              0.0000    Z=              3.0812  Tot=              3.0812
 Quadrupole moment (field-independent basis, Debye-Ang):
   XX=            -12.1316   YY=            -12.1316   ZZ=            -10.5072
   XY=              0.0000   XZ=              0.0000   YZ=              0.0000

                      1                      2                      3
                     PI                     PI                     SG
 Frequencies --    515.5576               515.5576              2141.0529
 Red. masses --      1.2885                 1.2885                 7.0655
 Frc consts  --      0.2018                 0.2018                19.0831
 IR Inten    --    166.5159               166.5159                70.6718

                      4
                     SG
 Frequencies --   3913.7712
 Red. masses --      1.1181
 Frc consts  --     10.0906
 IR Inten    --    296.6157

 - Thermochemistry -
 -------------------
 Temperature   298.150 Kelvin.  Pressure   1.00000 Atm.
 Atom     1 has atomic number  7 and mass  14.00307

 Molecular mass:    27.01090 amu.
 Principal axes and moments of inertia in atomic units:
                           1         2         3
     Eigenvalues --     0.00000  39.66466  39.66466
           X            0.00000   0.00000   1.00000
           Y            0.00000   1.00000   0.00000
           Z            1.00000   0.00000   0.00000
 This molecule is a prolate symmetric top.
 Rotational symmetry number  1.
 Rotational temperature (Kelvin)      2.18365
 Rotational constant (GHZ):          45.499984
 Zero-point vibrational energy      42383.3 (Joules/Mol)
                                   10.12986 (Kcal/Mol)
 Warning -- explicit consideration of   2 degrees of freedom as
           vibrations may cause significant error
 Vibrational temperatures:    741.77   741.77  3080.49  5631.04
          (Kelvin)

 Zero-point correction=                           0.016143 (Hartree/Particle)
 Thermal correction to Energy=                    0.018929
 Thermal correction to Enthalpy=                  0.019874
 Thermal correction to Gibbs Free Energy=        -0.003320
 Sum of electronic and zero-point Energies=            -93.147761
 Sum of electronic and thermal Energies=               -93.144975
 Sum of electronic and thermal Enthalpies=             -93.144030
 Sum of electronic and thermal Free Energies=          -93.167224

                     E (Thermal)             CV                S
                      KCal/Mol        Cal/Mol-Kelvin    Cal/Mol-Kelvin
 Total                   11.878              7.406             48.815
 Electronic               0.000              0.000              0.000
 Translational            0.889              2.981             35.816
 Rotational               0.592              1.987             11.758
 Vibrational             10.397              2.438              1.241
 Vibration     1          0.871              1.216              0.620
 Vibration     2          0.871              1.216              0.620

 Optimization completed.
    -- Stationary point found.
 Normal termination of Gaussian 09 at Fri Sep 30 11:33:01 2016.
