 Gaussian 09, Revision D.01,
 Gaussian 09:  ES64L-G09RevD.01 24-Apr-2013

 ---------------------------------------
 # opt=tight freq MP2(fc)/6-311++g** gfp
 ---------------------------------------

 -------
 HNC-HCN
 -------
 Symbolic Z-matrix:
 Charge =  0 Multiplicity = 1

 SCF Done:  E(RHF) =  -92.8403099216     A.U. after   10 cycles
 E2 =    -0.2745794250D+00 EUMP2 =    -0.93114889346643D+02
 SCF Done:  E(RHF) =  -92.8988951144     A.U. after   11 cycles
 E2 =    -0.2917993123D+00 EUMP2 =    -0.93190694426719D+02
 SCF Done:  E(RHF) =  -92.8931080441     A.U. after   11 cycles
 E2 =    -0.3070230556D+00 EUMP2 =    -0.93200131099711D+02
 SCF Done:  E(RHF) =  -92.8975869353     A.U. after    9 cycles
 E2 =    -0.3054452233D+00 EUMP2 =    -0.93203032158583D+02
 SCF Done:  E(RHF) =  -92.8968287387     A.U. after    9 cycles
 E2 =    -0.3063897319D+00 EUMP2 =    -0.93203218470638D+02
 SCF Done:  E(RHF) =  -92.8964878864     A.U. after    8 cycles
 E2 =    -0.3067365440D+00 EUMP2 =    -0.93203224430406D+02
 SCF Done:  E(RHF) =  -92.8964572409     A.U. after    7 cycles
 E2 =    -0.3067672309D+00 EUMP2 =    -0.93203224471729D+02
 Optimization completed.
    -- Stationary point found.
 Normal termination of Gaussian 09 at Fri Sep 30 11:36:39 2016.

 ----------------------------------------------------------------------
 #N Geom=AllCheck Guess=TCheck SCRF=Check GenChk RMP2(FC)/6-311++G(d,p)
  Freq
 ----------------------------------------------------------------------

 Structure from the checkpoint file:  "HNC180MP2fc.chk"
 -------
 HNC-HCN
 -------
 Charge =  0 Multiplicity = 1

                         Standard orientation:
 ---------------------------------------------------------------------
 Center     Atomic      Atomic             Coordinates (Angstroms)
 Number     Number       Type             X           Y           Z
 ---------------------------------------------------------------------
      1          7           0        0.000000    0.000000    0.661955
      2          6           0        0.000000    0.000000   -0.509389
      3          1           0        0.000000    0.000000   -1.577351
 ---------------------------------------------------------------------

 SCF Done:  E(RHF) =  -92.8964572409     A.U. after    1 cycles
 E2 =    -0.3067672313D+00 EUMP2 =    -0.93203224472160D+02
 E2 =    -0.3067672313D+00 EUMP2 =    -0.93203224472160D+02

 The electronic state is 1-SG.
 Alpha  occ. eigenvalues --  -15.60904 -11.30138  -1.23299  -0.81582  -0.58428
 Alpha  occ. eigenvalues --   -0.49286  -0.49286
 Alpha virt. eigenvalues --    0.03569   0.08710   0.08949   0.08949   0.16844
 Alpha virt. eigenvalues --    0.17089   0.17089   0.20818   0.27379   0.27379
 Alpha virt. eigenvalues --    0.28141   0.33747   0.53229   0.70254   0.70254

 Mulliken charges:
               1
     1  N   -0.225125
     2  C    0.013226
     3  H    0.211899
 Sum of Mulliken charges =   0.00000

 Dipole moment (field-independent basis, Debye):
    X=              0.0000    Y=              0.0000    Z=             -3.3191  Tot=              3.3191
 Quadrupole moment (field-independent basis, Debye-Ang):
   XX=            -12.0596   YY=            -12.0596   ZZ=             -9.6958
   XY=              0.0000   XZ=              0.0000   YZ=              0.0000

  Exact polarizability:  10.168   0.000  10.168   0.000   0.000  21.869
 Approx polarizability:   8.662   0.000   8.662   0.000   0.000  23.824

                      1                      2                      3
                     PI                     PI                     SG
 Frequencies --    729.1854               729.1854              2016.0755
 Red. masses --      1.3372                 1.3372                 5.7498
 Frc consts  --      0.4189                 0.4189                13.7695
 IR Inten    --     43.1588                43.1588                 0.2651

                      4
                     SG
 Frequencies --   3482.9650
 Red. masses --      1.1601
 Frc consts  --      8.2917
 IR Inten    --     76.9840

 - Thermochemistry -
 -------------------
 Temperature   298.150 Kelvin.  Pressure   1.00000 Atm.
 Atom     1 has atomic number  7 and mass  14.00307

 Molecular mass:    27.01090 amu.
 Principal axes and moments of inertia in atomic units:
                           1         2         3
     Eigenvalues --     0.00000  41.66091  41.66091
           X            0.00000   0.00000   1.00000
           Y            0.00000   1.00000   0.00000
           Z            1.00000   0.00000   0.00000
 This molecule is a prolate symmetric top.
 Rotational symmetry number  1.
 Rotational temperature (Kelvin)      2.07902
 Rotational constant (GHZ):          43.319776
 Zero-point vibrational energy      41614.6 (Joules/Mol)
                                    9.94612 (Kcal/Mol)
 Vibrational temperatures:   1049.13  1049.13  2900.68  5011.20
          (Kelvin)

 Zero-point correction=                           0.015850 (Hartree/Particle)
 Thermal correction to Energy=                    0.018414
 Thermal correction to Enthalpy=                  0.019358
 Thermal correction to Gibbs Free Energy=        -0.003552
 Sum of electronic and zero-point Energies=            -93.187374
 Sum of electronic and thermal Energies=               -93.184810
 Sum of electronic and thermal Enthalpies=             -93.183866
 Sum of electronic and thermal Free Energies=          -93.206777

                     E (Thermal)             CV                S
                      KCal/Mol        Cal/Mol-Kelvin    Cal/Mol-Kelvin
 Total                   11.555              6.528             48.219
 Electronic               0.000              0.000              0.000
 Translational            0.889              2.981             35.816
 Rotational               0.592              1.987             11.855
 Vibrational             10.074              1.560              0.548

 Optimization completed.
    -- Stationary point found.
 Normal termination of Gaussian 09 at Fri Sep 30 11:36:48 2016.
