 Gaussian 09, Revision D.01,
 Gaussian 09:  ES64L-G09RevD.01 24-Apr-2013

 ----------------------------------------
 # opt=tight freq CISD(fc)/6-311++g** gfp
 ----------------------------------------

 -------
 HNC-HCN
 -------
 Symbolic Z-matrix:
 Charge =  0 Multiplicity = 1

 SCF Done:  E(RHF) =  -92.8403099216     A.U. after   10 cycles
 E2 =    -0.2745794250D+00 EUMP2 =    -0.93114889346643D+02
 SCF Done:  E(RHF) =  -92.8981530444     A.U. after   11 cycles
 E2 =    -0.2910759318D+00 EUMP2 =    -0.93189228976238D+02
 SCF Done:  E(RHF) =  -92.8983436299     A.U. after   10 cycles
 E2 =    -0.3022937229D+00 EUMP2 =    -0.93200637352787D+02
 SCF Done:  E(RHF) =  -92.9002979786     A.U. after    9 cycles
 E2 =    -0.3016642641D+00 EUMP2 =    -0.93201962242685D+02
 SCF Done:  E(RHF) =  -92.9000989722     A.U. after    9 cycles
 E2 =    -0.3021694103D+00 EUMP2 =    -0.93202268382514D+02
 SCF Done:  E(RHF) =  -92.9000324874     A.U. after    7 cycles
 E2 =    -0.3022861347D+00 EUMP2 =    -0.93202318622091D+02
 SCF Done:  E(RHF) =  -92.9000272144     A.U. after    6 cycles
 E2 =    -0.3022951203D+00 EUMP2 =    -0.93202322334717D+02
 Optimization completed.
    -- Stationary point found.
 Normal termination of Gaussian 09 at Fri Sep 30 11:34:59 2016.

 ----------------------------------------------------------------------
 #N Geom=AllCheck Guess=TCheck SCRF=Check GenChk RCISD(FC)/6-311++G(d,p
 ) Freq
 ----------------------------------------------------------------------

 Structure from the checkpoint file:  "HNC180CISDfc.chk"
 -------
 HNC-HCN
 -------
 Charge =  0 Multiplicity = 1

                         Standard orientation:
 ---------------------------------------------------------------------
 Center     Atomic      Atomic             Coordinates (Angstroms)
 Number     Number       Type             X           Y           Z
 ---------------------------------------------------------------------
      1          7           0        0.000000    0.000000    0.651199
      2          6           0        0.000000    0.000000   -0.499000
      3          1           0        0.000000    0.000000   -1.564388
 ---------------------------------------------------------------------

 SCF Done:  E(RHF) =  -92.9000272144     A.U. after    1 cycles
 E2 =    -0.3022951204D+00 EUMP2 =    -0.93202322334825D+02
 SCF Done:  E(RHF) =  -92.9000271321     A.U. after    6 cycles
 E2 =    -0.3022952162D+00 EUMP2 =    -0.93202322348267D+02
 SCF Done:  E(RHF) =  -92.9000271321     A.U. after    6 cycles
 E2 =    -0.3022952162D+00 EUMP2 =    -0.93202322348267D+02
 SCF Done:  E(RHF) =  -92.8999058699     A.U. after    8 cycles
 E2 =    -0.3025014037D+00 EUMP2 =    -0.93202407273664D+02
 SCF Done:  E(RHF) =  -92.9001437577     A.U. after    8 cycles
 E2 =    -0.3020892015D+00 EUMP2 =    -0.93202232959194D+02
 SCF Done:  E(RHF) =  -92.9000270257     A.U. after    7 cycles
 E2 =    -0.3022952443D+00 EUMP2 =    -0.93202322269936D+02
 SCF Done:  E(RHF) =  -92.9000270257     A.U. after    7 cycles
 E2 =    -0.3022952443D+00 EUMP2 =    -0.93202322269936D+02
 SCF Done:  E(RHF) =  -92.9001331710     A.U. after    8 cycles
 E2 =    -0.3021015313D+00 EUMP2 =    -0.93202234702292D+02
 SCF Done:  E(RHF) =  -92.8999148454     A.U. after    8 cycles
 E2 =    -0.3024890688D+00 EUMP2 =    -0.93202403914211D+02
 SCF Done:  E(RHF) =  -92.9000271741     A.U. after    6 cycles
 E2 =    -0.3022951343D+00 EUMP2 =    -0.93202322308434D+02
 SCF Done:  E(RHF) =  -92.9000271741     A.U. after    6 cycles
 E2 =    -0.3022951343D+00 EUMP2 =    -0.93202322308434D+02
 SCF Done:  E(RHF) =  -92.9000362397     A.U. after    7 cycles
 E2 =    -0.3022827955D+00 EUMP2 =    -0.93202319035277D+02
 SCF Done:  E(RHF) =  -92.9000166774     A.U. after    8 cycles
 E2 =    -0.3023074611D+00 EUMP2 =    -0.93202324138472D+02

 Alpha  occ. eigenvalues --  -15.60159 -11.29373  -1.24292  -0.81318  -0.58326
 Alpha  occ. eigenvalues --   -0.49913  -0.49913
 Alpha virt. eigenvalues --    0.03587   0.08724   0.09027   0.09027   0.16815
 Alpha virt. eigenvalues --    0.17546   0.17546   0.20861   0.27691   0.27691
 Alpha virt. eigenvalues --    0.28387   0.33836   0.53569   0.70308   0.70308

 Mulliken charges:
               1
     1  N   -0.219903
     2  C    0.026693
     3  H    0.193211
 Sum of Mulliken charges =   0.00000

 Dipole moment (field-independent basis, Debye):
    X=              0.0000    Y=              0.0000    Z=             -3.0708  Tot=              3.0708
 Quadrupole moment (field-independent basis, Debye-Ang):
   XX=            -11.7904   YY=            -11.7904   ZZ=             -9.9617
   XY=              0.0000   XZ=              0.0000   YZ=              0.0000

                      1                      2                      3
                     PI                     PI                     SG
 Frequencies --    776.7835               776.7835              2228.5156
 Red. masses --      1.3430                 1.3430                 5.1511
 Frc consts  --      0.4774                 0.4774                15.0723
 IR Inten    --     40.6300                40.6300                 2.0537

                      4
                     SG
 Frequencies --   3525.9617
 Red. masses --      1.1880
 Frc consts  --      8.7017
 IR Inten    --     69.7351

 - Thermochemistry -
 -------------------
 Temperature   298.150 Kelvin.  Pressure   1.00000 Atm.
 Atom     1 has atomic number  7 and mass  14.00307

 Molecular mass:    27.01090 amu.
 Principal axes and moments of inertia in atomic units:
                           1         2         3
     Eigenvalues --     0.00000  40.36443  40.36443
           X            0.00000   0.00000   1.00000
           Y            0.00000   1.00000   0.00000
           Z            1.00000   0.00000   0.00000
 This molecule is a prolate symmetric top.
 Rotational symmetry number  1.
 Rotational temperature (Kelvin)      2.14580
 Rotational constant (GHZ):          44.711178
 Zero-point vibrational energy      43711.8 (Joules/Mol)
                                   10.44737 (Kcal/Mol)
 Vibrational temperatures:   1117.62  1117.62  3206.33  5073.07
          (Kelvin)

 Zero-point correction=                           0.016649 (Hartree/Particle)
 Thermal correction to Energy=                    0.019180
 Thermal correction to Enthalpy=                  0.020125
 Thermal correction to Gibbs Free Energy=        -0.002712
 Sum of electronic and zero-point Energies=            -93.169660
 Sum of electronic and thermal Energies=               -93.167129
 Sum of electronic and thermal Enthalpies=             -93.166185
 Sum of electronic and thermal Free Energies=          -93.189021

                     E (Thermal)             CV                S
                      KCal/Mol        Cal/Mol-Kelvin    Cal/Mol-Kelvin
 Total                   12.036              6.352             48.063
 Electronic               0.000              0.000              0.000
 Translational            0.889              2.981             35.816
 Rotational               0.592              1.987             11.792
 Vibrational             10.555              1.384              0.455

 Optimization completed.
    -- Stationary point found.
 Normal termination of Gaussian 09 at Fri Sep 30 11:36:19 2016.
