 Gaussian 09, Revision D.01,
 Gaussian 09:  ES64L-G09RevD.01 24-Apr-2013

 ---------------------------------------
 # opt=tight freq MP2(fc)/6-311++g** gfp
 ---------------------------------------

 -------
 HNC-HCN
 -------
 Symbolic Z-matrix:
 Charge =  0 Multiplicity = 1

 SCF Done:  E(RHF) =  -92.7520603033     A.U. after   10 cycles
 E2 =    -0.2773188220D+00 EUMP2 =    -0.93029379125269D+02
 SCF Done:  E(RHF) =  -92.8465420615     A.U. after   11 cycles
 E2 =    -0.2822796841D+00 EUMP2 =    -0.93128821745624D+02
 SCF Done:  E(RHF) =  -92.6787088716     A.U. after   11 cycles
 E2 =    -0.2808156322D+00 EUMP2 =    -0.92959524503732D+02
 SCF Done:  E(RHF) =  -92.8834445092     A.U. after   10 cycles
 E2 =    -0.2888230456D+00 EUMP2 =    -0.93172267554819D+02
 SCF Done:  E(RHF) =  -92.8836124986     A.U. after    9 cycles
 E2 =    -0.2896737187D+00 EUMP2 =    -0.93173286217308D+02
 SCF Done:  E(RHF) =  -92.8828786629     A.U. after    9 cycles
 E2 =    -0.2906202563D+00 EUMP2 =    -0.93173498919217D+02
 SCF Done:  E(RHF) =  -92.8822104332     A.U. after    8 cycles
 E2 =    -0.2913403310D+00 EUMP2 =    -0.93173550764211D+02
 SCF Done:  E(RHF) =  -92.8822078741     A.U. after    6 cycles
 E2 =    -0.2913430656D+00 EUMP2 =    -0.93173550939682D+02
 SCF Done:  E(RHF) =  -92.8822090109     A.U. after    5 cycles
 E2 =    -0.2913419345D+00 EUMP2 =    -0.93173550945452D+02
 Optimization completed.
    -- Stationary point found.
 Normal termination of Gaussian 09 at Fri Sep 30 11:33:26 2016.

 ----------------------------------------------------------------------
 #N Geom=AllCheck Guess=TCheck SCRF=Check GenChk RMP2(FC)/6-311++G(d,p)
  Freq
 ----------------------------------------------------------------------

 Structure from the checkpoint file:  "HNC0MP2fc.chk"
 -------
 HNC-HCN
 -------
 Charge =  0 Multiplicity = 1

                         Standard orientation:
 ---------------------------------------------------------------------
 Center     Atomic      Atomic             Coordinates (Angstroms)
 Number     Number       Type             X           Y           Z
 ---------------------------------------------------------------------
      1          7           0        0.000000    0.000000    0.434865
      2          6           0        0.000000    0.000000   -0.746609
      3          1           0        0.000000    0.000000    1.435602
 ---------------------------------------------------------------------

 SCF Done:  E(RHF) =  -92.8822090109     A.U. after    1 cycles
 E2 =    -0.2913419324D+00 EUMP2 =    -0.93173550943377D+02
 E2 =    -0.2913419324D+00 EUMP2 =    -0.93173550943377D+02

 The electronic state is 1-SG.
 Alpha  occ. eigenvalues --  -15.60935 -11.30695  -1.26356  -0.87532  -0.51799
 Alpha  occ. eigenvalues --   -0.51799  -0.49481
 Alpha virt. eigenvalues --    0.03808   0.10140   0.10792   0.10792   0.13720
 Alpha virt. eigenvalues --    0.16522   0.16522   0.21812   0.25908   0.25908
 Alpha virt. eigenvalues --    0.28511   0.36749   0.54801   0.64946   0.73883

 Mulliken charges:
               1
     1  N   -0.244600
     2  C   -0.081863
     3  H    0.326463
 Sum of Mulliken charges =   0.00000

 Dipole moment (field-independent basis, Debye):
    X=              0.0000    Y=              0.0000    Z=              2.8217  Tot=              2.8217
 Quadrupole moment (field-independent basis, Debye-Ang):
   XX=            -12.2583   YY=            -12.2583   ZZ=            -10.2521
   XY=              0.0000   XZ=              0.0000   YZ=              0.0000

  Exact polarizability:  12.307   0.000  12.307   0.000   0.000  23.528
 Approx polarizability:   9.806   0.000   9.806   0.000   0.000  21.127

                      1                      2                      3
                     PI                     PI                     SG
 Frequencies --    507.8351               507.8351              2014.9821
 Red. masses --      1.2868                 1.2868                 7.1293
 Frc consts  --      0.1955                 0.1955                17.0544
 IR Inten    --    156.7888               156.7888                32.2053

                      4
                     SG
 Frequencies --   3836.4335
 Red. masses --      1.1165
 Frc consts  --      9.6821
 IR Inten    --    266.0483

 - Thermochemistry -
 -------------------
 Temperature   298.150 Kelvin.  Pressure   1.00000 Atm.
 Atom     1 has atomic number  7 and mass  14.00307

 Molecular mass:    27.01090 amu.
 Principal axes and moments of inertia in atomic units:
                           1         2         3
     Eigenvalues --     0.00000  40.49338  40.49338
           X            0.00000   0.00000   1.00000
           Y            0.00000   1.00000   0.00000
           Z            1.00000   0.00000   0.00000
 This molecule is a prolate symmetric top.
 Rotational symmetry number  1.
 Rotational temperature (Kelvin)      2.13896
 Rotational constant (GHZ):          44.568797
 Zero-point vibrational energy      41074.3 (Joules/Mol)
                                    9.81699 (Kcal/Mol)
 Warning -- explicit consideration of   2 degrees of freedom as
           vibrations may cause significant error
 Vibrational temperatures:    730.66   730.66  2899.11  5519.77
          (Kelvin)

 Zero-point correction=                           0.015644 (Hartree/Particle)
 Thermal correction to Energy=                    0.018442
 Thermal correction to Enthalpy=                  0.019386
 Thermal correction to Gibbs Free Energy=        -0.003845
 Sum of electronic and zero-point Energies=            -93.157907
 Sum of electronic and thermal Energies=               -93.155109
 Sum of electronic and thermal Enthalpies=             -93.154165
 Sum of electronic and thermal Free Energies=          -93.177396

                     E (Thermal)             CV                S
                      KCal/Mol        Cal/Mol-Kelvin    Cal/Mol-Kelvin
 Total                   11.573              7.445             48.894
 Electronic               0.000              0.000              0.000
 Translational            0.889              2.981             35.816
 Rotational               0.592              1.987             11.799
 Vibrational             10.091              2.477              1.279
 Vibration     1          0.863              1.233              0.639
 Vibration     2          0.863              1.233              0.639

 Optimization completed.
    -- Stationary point found.
 Normal termination of Gaussian 09 at Fri Sep 30 11:33:35 2016.
