 Gaussian 09, Revision D.01,
 Gaussian 09:  ES64L-G09RevD.01 24-Apr-2013

 -----------------------------------------
 # opt=(tight) freq mp2(FC)/6-311++g** gfp
 -----------------------------------------

 -------
 HNC-HCN
 -------
 Symbolic Z-matrix:
 Charge =  0 Multiplicity = 1

 SCF Done:  E(RHF) =  -92.7649076506     A.U. after   10 cycles
 E2 =    -0.2815772906D+00 EUMP2 =    -0.93046484941262D+02
 SCF Done:  E(RHF) =  -92.8462401960     A.U. after   10 cycles
 E2 =    -0.2900481252D+00 EUMP2 =    -0.93136288321230D+02
 SCF Done:  E(RHF) =  -92.8904433125     A.U. after   11 cycles
 E2 =    -0.3117953337D+00 EUMP2 =    -0.93202238646143D+02
 SCF Done:  E(RHF) =  -92.8949724193     A.U. after    9 cycles
 E2 =    -0.3081535797D+00 EUMP2 =    -0.93203125998978D+02
 SCF Done:  E(RHF) =  -92.8963754369     A.U. after    9 cycles
 E2 =    -0.3068180248D+00 EUMP2 =    -0.93203193461696D+02
 SCF Done:  E(RHF) =  -92.8969515058     A.U. after    8 cycles
 E2 =    -0.3062548739D+00 EUMP2 =    -0.93203206379680D+02
 SCF Done:  E(RHF) =  -92.8964155711     A.U. after    8 cycles
 E2 =    -0.3068088117D+00 EUMP2 =    -0.93203224382863D+02
 SCF Done:  E(RHF) =  -92.8964577330     A.U. after    7 cycles
 E2 =    -0.3067667399D+00 EUMP2 =    -0.93203224472876D+02
 Optimization completed.
    -- Stationary point found.
 Normal termination of Gaussian 09 at Fri Sep 30 11:28:22 2016.

 ----------------------------------------------------------------------
 #N Geom=AllCheck Guess=TCheck SCRF=Check GenChk RMP2(FC)/6-311++G(d,p)
  Freq
 ----------------------------------------------------------------------

 Structure from the checkpoint file:  "hnc-MP2fc-180.chk"
 -------
 HNC-HCN
 -------
 Charge =  0 Multiplicity = 1

                         Standard orientation:
 ---------------------------------------------------------------------
 Center     Atomic      Atomic             Coordinates (Angstroms)
 Number     Number       Type             X           Y           Z
 ---------------------------------------------------------------------
      1          7           0        0.000000    0.000000    0.661954
      2          6           0        0.000000    0.000000   -0.509387
      3          1           0        0.000000    0.000000   -1.577353
 ---------------------------------------------------------------------

 SCF Done:  E(RHF) =  -92.8964577330     A.U. after    1 cycles
 E2 =    -0.3067667396D+00 EUMP2 =    -0.93203224472591D+02
 E2 =    -0.3067667396D+00 EUMP2 =    -0.93203224472591D+02

 The electronic state is 1-SG.
 Alpha  occ. eigenvalues --  -15.60904 -11.30137  -1.23299  -0.81582  -0.58428
 Alpha  occ. eigenvalues --   -0.49286  -0.49286
 Alpha virt. eigenvalues --    0.03569   0.08710   0.08949   0.08949   0.16844
 Alpha virt. eigenvalues --    0.17090   0.17090   0.20818   0.27379   0.27379
 Alpha virt. eigenvalues --    0.28141   0.33747   0.53229   0.70254   0.70254

 Mulliken charges:
               1
     1  N   -0.225127
     2  C    0.013227
     3  H    0.211900
 Sum of Mulliken charges =   0.00000

 Dipole moment (field-independent basis, Debye):
    X=              0.0000    Y=              0.0000    Z=             -3.3191  Tot=              3.3191
 Quadrupole moment (field-independent basis, Debye-Ang):
   XX=            -12.0596   YY=            -12.0596   ZZ=             -9.6958
   XY=              0.0000   XZ=              0.0000   YZ=              0.0000

  Exact polarizability:  10.168   0.000  10.168   0.000   0.000  21.869
 Approx polarizability:   8.662   0.000   8.662   0.000   0.000  23.824

                      1                      2                      3
                     PI                     PI                     SG
 Frequencies --    729.2065               729.2065              2016.0916
 Red. masses --      1.3372                 1.3372                 5.7497
 Frc consts  --      0.4189                 0.4189                13.7695
 IR Inten    --     43.1585                43.1585                 0.2650

                      4
                     SG
 Frequencies --   3482.9361
 Red. masses --      1.1601
 Frc consts  --      8.2916
 IR Inten    --     76.9840

 - Thermochemistry -
 -------------------
 Temperature   298.150 Kelvin.  Pressure   1.00000 Atm.
 Atom     1 has atomic number  7 and mass  14.00307

 Molecular mass:    27.01090 amu.
 Principal axes and moments of inertia in atomic units:
                           1         2         3
     Eigenvalues --     0.00000  41.66080  41.66080
           X            0.00000   0.00000   1.00000
           Y            0.00000   1.00000   0.00000
           Z            1.00000   0.00000   0.00000
 This molecule is a prolate symmetric top.
 Rotational symmetry number  1.
 Rotational temperature (Kelvin)      2.07902
 Rotational constant (GHZ):          43.319893
 Zero-point vibrational energy      41614.7 (Joules/Mol)
                                    9.94616 (Kcal/Mol)
 Vibrational temperatures:   1049.16  1049.16  2900.70  5011.16
          (Kelvin)

 Zero-point correction=                           0.015850 (Hartree/Particle)
 Thermal correction to Energy=                    0.018414
 Thermal correction to Enthalpy=                  0.019358
 Thermal correction to Gibbs Free Energy=        -0.003552
 Sum of electronic and zero-point Energies=            -93.187374
 Sum of electronic and thermal Energies=               -93.184810
 Sum of electronic and thermal Enthalpies=             -93.183866
 Sum of electronic and thermal Free Energies=          -93.206777

                     E (Thermal)             CV                S
                      KCal/Mol        Cal/Mol-Kelvin    Cal/Mol-Kelvin
 Total                   11.555              6.528             48.219
 Electronic               0.000              0.000              0.000
 Translational            0.889              2.981             35.816
 Rotational               0.592              1.987             11.855
 Vibrational             10.074              1.560              0.548

 Optimization completed.
    -- Stationary point found.
 Normal termination of Gaussian 09 at Fri Sep 30 11:28:31 2016.
