 Gaussian 09, Revision D.01,
 Gaussian 09:  ES64L-G09RevD.01 24-Apr-2013

 ------------------------------------------
 #freq opt=(tight) mp2(full)/6-311++g** gfp
 ------------------------------------------

 -------
 HNC-HCN
 -------
 Symbolic Z-matrix:
 Charge =  0 Multiplicity = 1

 SCF Done:  E(RHF) =  -92.7649076506     A.U. after   10 cycles
 E2 =    -0.3192741732D+00 EUMP2 =    -0.93084181823815D+02
 SCF Done:  E(RHF) =  -92.8460952689     A.U. after   10 cycles
 E2 =    -0.3274724652D+00 EUMP2 =    -0.93173567734122D+02
 SCF Done:  E(RHF) =  -92.8908431275     A.U. after   11 cycles
 E2 =    -0.3487525401D+00 EUMP2 =    -0.93239595667539D+02
 SCF Done:  E(RHF) =  -92.8952257001     A.U. after    9 cycles
 E2 =    -0.3452316849D+00 EUMP2 =    -0.93240457384993D+02
 SCF Done:  E(RHF) =  -92.8965762061     A.U. after    9 cycles
 E2 =    -0.3439450007D+00 EUMP2 =    -0.93240521206797D+02
 SCF Done:  E(RHF) =  -92.8971357032     A.U. after    8 cycles
 E2 =    -0.3434001068D+00 EUMP2 =    -0.93240535810052D+02
 SCF Done:  E(RHF) =  -92.8966180029     A.U. after    8 cycles
 E2 =    -0.3439352044D+00 EUMP2 =    -0.93240553207274D+02
 SCF Done:  E(RHF) =  -92.8966551265     A.U. after    7 cycles
 E2 =    -0.3438981539D+00 EUMP2 =    -0.93240553280447D+02
 Optimization completed.
    -- Stationary point found.
 Normal termination of Gaussian 09 at Fri Sep 30 11:28:29 2016.

 ----------------------------------------------------------------------
 #N Geom=AllCheck Guess=TCheck SCRF=Check GenChk RMP2-Full/6-311++G(d,p
 ) Freq
 ----------------------------------------------------------------------

 Structure from the checkpoint file:  "hnc-mp2full-180.chk"
 -------
 HNC-HCN
 -------
 Charge =  0 Multiplicity = 1

                         Standard orientation:
 ---------------------------------------------------------------------
 Center     Atomic      Atomic             Coordinates (Angstroms)
 Number     Number       Type             X           Y           Z
 ---------------------------------------------------------------------
      1          7           0        0.000000    0.000000    0.661467
      2          6           0        0.000000    0.000000   -0.508973
      3          1           0        0.000000    0.000000   -1.576428
 ---------------------------------------------------------------------

 SCF Done:  E(RHF) =  -92.8966551265     A.U. after    1 cycles
 E2 =    -0.3438981536D+00 EUMP2 =    -0.93240553280192D+02
 E2 =    -0.3438981536D+00 EUMP2 =    -0.93240553280192D+02

 The electronic state is 1-SG.
 Alpha  occ. eigenvalues --  -15.60874 -11.30102  -1.23342  -0.81588  -0.58426
 Alpha  occ. eigenvalues --   -0.49313  -0.49313
 Alpha virt. eigenvalues --    0.03570   0.08711   0.08953   0.08953   0.16843
 Alpha virt. eigenvalues --    0.17108   0.17108   0.20825   0.27392   0.27392
 Alpha virt. eigenvalues --    0.28156   0.33753   0.53251   0.70256   0.70256

 Mulliken charges:
               1
     1  N   -0.225792
     2  C    0.014050
     3  H    0.211742
 Sum of Mulliken charges =   0.00000

 Dipole moment (field-independent basis, Debye):
    X=              0.0000    Y=              0.0000    Z=             -3.3177  Tot=              3.3177
 Quadrupole moment (field-independent basis, Debye-Ang):
   XX=            -12.0549   YY=            -12.0549   ZZ=             -9.6987
   XY=              0.0000   XZ=              0.0000   YZ=              0.0000

  Exact polarizability:  10.154   0.000  10.154   0.000   0.000  21.835
 Approx polarizability:   8.656   0.000   8.656   0.000   0.000  23.772

                      1                      2                      3
                     PI                     PI                     SG
 Frequencies --    735.5625               735.5625              2020.7962
 Red. masses --      1.3373                 1.3373                 5.7461
 Frc consts  --      0.4263                 0.4263                13.8252
 IR Inten    --     43.0422                43.0422                 0.2532

                      4
                     SG
 Frequencies --   3489.7636
 Red. masses --      1.1602
 Frc consts  --      8.3252
 IR Inten    --     77.4773

 - Thermochemistry -
 -------------------
 Temperature   298.150 Kelvin.  Pressure   1.00000 Atm.
 Atom     1 has atomic number  7 and mass  14.00307

 Molecular mass:    27.01090 amu.
 Principal axes and moments of inertia in atomic units:
                           1         2         3
     Eigenvalues --     0.00000  41.60035  41.60035
           X            0.00000   0.00000   1.00000
           Y            0.00000   1.00000   0.00000
           Z            1.00000   0.00000   0.00000
 This molecule is a prolate symmetric top.
 Rotational symmetry number  1.
 Rotational temperature (Kelvin)      2.08205
 Rotational constant (GHZ):          43.382839
 Zero-point vibrational energy      41759.7 (Joules/Mol)
                                    9.98082 (Kcal/Mol)
 Vibrational temperatures:   1058.31  1058.31  2907.47  5020.99
          (Kelvin)

 Zero-point correction=                           0.015905 (Hartree/Particle)
 Thermal correction to Energy=                    0.018465
 Thermal correction to Enthalpy=                  0.019409
 Thermal correction to Gibbs Free Energy=        -0.003494
 Sum of electronic and zero-point Energies=            -93.224648
 Sum of electronic and thermal Energies=               -93.222089
 Sum of electronic and thermal Enthalpies=             -93.221144
 Sum of electronic and thermal Free Energies=          -93.244047

                     E (Thermal)             CV                S
                      KCal/Mol        Cal/Mol-Kelvin    Cal/Mol-Kelvin
 Total                   11.587              6.504             48.203
 Electronic               0.000              0.000              0.000
 Translational            0.889              2.981             35.816
 Rotational               0.592              1.987             11.852
 Vibrational             10.106              1.536              0.535

 Optimization completed.
    -- Stationary point found.
 Normal termination of Gaussian 09 at Fri Sep 30 11:28:37 2016.
