 Gaussian 09, Revision D.01,
 Gaussian 09:  ES64L-G09RevD.01 24-Apr-2013

 ----------------------------------------------------------------------
 #p td=(singlet,nstates=40) 6-311+g(3df,2pd) geom=allcheck svwn5 pop=or
 bitals=6 symmetry=(pg=d6h)
 ----------------------------------------------------------------------

 Structure from the checkpoint file:  "NSEBenz.chk"
 -------
 Benzene
 -------
 Charge =  0 Multiplicity = 3

                         Standard orientation:
 ---------------------------------------------------------------------
 Center     Atomic      Atomic             Coordinates (Angstroms)
 Number     Number       Type             X           Y           Z
 ---------------------------------------------------------------------
      1          6           0        0.749908   -1.200793   -0.000065
      2          6           0        1.427037   -0.000765    0.000002
      3          6           0        0.751561    1.199574    0.000057
      4          6           0       -0.749921    1.200796   -0.000065
      5          6           0       -1.427037    0.000759    0.000001
      6          6           0       -0.751548   -1.199571    0.000069
      7          1           0        1.285097   -2.151453   -0.000201
      8          1           0        2.521429   -0.001376    0.000011
      9          1           0        1.287900    2.149619    0.000209
     10          1           0       -1.285097    2.151463   -0.000192
     11          1           0       -2.521429    0.001353    0.000001
     12          1           0       -1.287901   -2.149609    0.000180
 ---------------------------------------------------------------------

 SCF Done:  E(US-VWN5) =  -230.018195542     A.U. after   12 cycles

 Excitation energies and oscillator strengths:

 Excited State   1:  3.003-A      0.8871 eV 1397.68 nm  f=0.0000  <S**2>=2.004
     22A -> 23A       -0.65165
     20B -> 21B        0.76148
 This state for optimization and/or second-order correction.
 Total Energy, E(TD-HF/TD-KS) =  -229.985596342
 Copying the excited state density for this state as the 1-particle RhoCI density.

 Excited State   2:  3.002-A      1.2731 eV  973.86 nm  f=0.0000  <S**2>=2.003
     22A -> 23A        0.76301
     20B -> 21B        0.65306

 Excited State   3:  3.008-A      2.1585 eV  574.40 nm  f=0.0000  <S**2>=2.012
     22A -> 24A        0.99984

 Excited State   4:  3.008-A      2.2508 eV  550.84 nm  f=0.0000  <S**2>=2.013
     19B -> 21B        0.99965

 Excited State   5:  3.008-A      2.7567 eV  449.75 nm  f=0.0000  <S**2>=2.012
     22A -> 25A        0.99981

 Excited State   6:  3.008-A      2.7800 eV  445.99 nm  f=0.0000  <S**2>=2.012
     22A -> 26A        0.96433
     18B -> 21B       -0.26451

 Excited State   7:  3.008-A      2.8667 eV  432.49 nm  f=0.0000  <S**2>=2.013
     22A -> 26A        0.26443
     18B -> 21B        0.96424

 Excited State   8:  3.002-A      3.1896 eV  388.71 nm  f=0.0085  <S**2>=2.003
     21A -> 23A        0.15984
     22A -> 31A       -0.43329
     17B -> 21B        0.88829

 Excited State   9:  3.008-A      3.2952 eV  376.26 nm  f=0.0091  <S**2>=2.012
     22A -> 27A        0.99947

 Excited State  10:  3.008-A      3.4272 eV  361.77 nm  f=0.0000  <S**2>=2.012
     22A -> 28A        0.99963

 Excited State  11:  3.008-A      3.6915 eV  335.86 nm  f=0.0000  <S**2>=2.012
     22A -> 29A        0.99925

 Excited State  12:  3.008-A      3.7278 eV  332.60 nm  f=0.0000  <S**2>=2.012
     22A -> 30A        0.99907

 Excited State  13:  3.009-A      4.1856 eV  296.22 nm  f=0.0009  <S**2>=2.014
     16B -> 21B        0.99798

 Excited State  14:  3.008-A      4.3568 eV  284.58 nm  f=0.0000  <S**2>=2.012
     22A -> 32A        0.99965

 Excited State  15:  3.007-A      4.4672 eV  277.55 nm  f=0.0000  <S**2>=2.010
     21A -> 23A        0.16690
     22A -> 31A        0.58362
     22A -> 33A        0.69081
     17B -> 21B        0.24139
     20B -> 22B        0.31221

 Excited State  16:  3.011-A      4.5058 eV  275.16 nm  f=0.0164  <S**2>=2.016
     22A -> 34A        0.99859

 Excited State  17:  3.007-A      4.5425 eV  272.94 nm  f=0.0649  <S**2>=2.010
     21A -> 23A       -0.20840
     22A -> 31A       -0.52008
     22A -> 33A        0.72065
     17B -> 21B       -0.22611
     20B -> 22B       -0.34087

 Excited State  18:  3.008-A      4.7464 eV  261.22 nm  f=0.0000  <S**2>=2.012
     22A -> 35A        0.99991

 Excited State  19:  3.009-A      4.8392 eV  256.21 nm  f=0.0000  <S**2>=2.013
     15B -> 21B        0.99980

 Excited State  20:  4.120-A      5.0934 eV  243.42 nm  f=0.0001  <S**2>=3.993
     20A -> 23A       -0.69850
     20B -> 23B        0.71241

 Excited State  21:  3.010-A      5.1847 eV  239.14 nm  f=0.0001  <S**2>=2.015
     14B -> 21B        0.99769

 Excited State  22:  3.004-A      5.2424 eV  236.50 nm  f=0.0019  <S**2>=2.006
     21A -> 23A        0.71287
     22A -> 31A        0.17338
     20B -> 22B       -0.67719

 Excited State  23:  3.009-A      5.4345 eV  228.14 nm  f=0.0000  <S**2>=2.014
     13B -> 21B        0.99591

 Excited State  24:  3.008-A      5.7169 eV  216.87 nm  f=0.0000  <S**2>=2.012
     22A -> 36A        0.99909

 Excited State  25:  3.008-A      5.7501 eV  215.62 nm  f=0.0000  <S**2>=2.013
     22A -> 38A        0.99912

 Excited State  26:  3.009-A      5.7720 eV  214.80 nm  f=0.0000  <S**2>=2.014
     22A -> 37A        0.99741

 Excited State  27:  3.008-A      5.8028 eV  213.66 nm  f=0.0002  <S**2>=2.012
     22A -> 39A        0.99733

 Excited State  28:  3.008-A      5.9702 eV  207.67 nm  f=0.0000  <S**2>=2.012
     22A -> 40A        0.99918

 Excited State  29:  3.008-A      5.9906 eV  206.96 nm  f=0.0000  <S**2>=2.012
     22A -> 41A        0.99793

 Excited State  30:  3.008-A      6.3405 eV  195.54 nm  f=0.0000  <S**2>=2.012
     22A -> 42A        0.99430

 Excited State  31:  3.682-A      6.4310 eV  192.79 nm  f=0.0000  <S**2>=3.140
     20B -> 24B        0.99700

 Excited State  32:  3.008-A      6.4920 eV  190.98 nm  f=0.0000  <S**2>=2.012
     21A -> 24A        0.99867

 Excited State  33:  3.011-A      6.5275 eV  189.94 nm  f=0.0000  <S**2>=2.016
     19B -> 22B        0.99433

 Excited State  34:  2.996-A      6.5554 eV  189.13 nm  f=0.4610  <S**2>=1.994
     21A -> 23A        0.57702
     22A -> 31A       -0.36518
     22A -> 46A       -0.43257
     17B -> 21B       -0.26973
     20B -> 22B        0.50522

 Excited State  35:  4.065-A      6.6560 eV  186.27 nm  f=0.0003  <S**2>=3.882
     19A -> 23A        0.85365
     19B -> 23B        0.51417

 Excited State  36:  3.534-A      6.7375 eV  184.02 nm  f=0.0000  <S**2>=2.872
     20A -> 24A        0.99721

 Excited State  37:  3.008-A      6.7474 eV  183.75 nm  f=0.0000  <S**2>=2.012
     22A -> 43A        0.99819

 Excited State  38:  3.006-A      6.7976 eV  182.39 nm  f=0.2347  <S**2>=2.009
     20A -> 23A        0.69949
     20B -> 23B        0.68540

 Excited State  39:  3.131-A      6.9314 eV  178.87 nm  f=0.0085  <S**2>=2.200
     19A -> 23A       -0.45092
     22A -> 44A        0.29199
     19B -> 23B        0.78191
     20B -> 25B       -0.30760

 Excited State  40:  3.617-A      6.9726 eV  177.82 nm  f=0.0043  <S**2>=3.020
     19A -> 23A       -0.20590
     19B -> 23B        0.23157
     20B -> 25B        0.94328

 The electronic state is 3-A.
 Alpha  occ. eigenvalues --   -9.79951  -9.79942  -9.79936  -9.79935  -9.78748
 Alpha  occ. eigenvalues --   -9.78744  -0.78005  -0.68903  -0.67254  -0.56000
 Alpha  occ. eigenvalues --   -0.53998  -0.47783  -0.41773  -0.40987  -0.38943
 Alpha  occ. eigenvalues --   -0.37383  -0.35063  -0.32186  -0.29985  -0.25895
 Alpha  occ. eigenvalues --   -0.25010  -0.09198
 Alpha virt. eigenvalues --   -0.05251  -0.01065   0.01097   0.01238   0.03071
 Alpha virt. eigenvalues --    0.03484   0.04627   0.04686   0.06243   0.06902
 Alpha virt. eigenvalues --    0.07633   0.07652   0.08420   0.12047   0.12188

  Beta  occ. eigenvalues --   -9.79084  -9.79077  -9.79072  -9.79071  -9.78914
  Beta  occ. eigenvalues --   -9.78911  -0.76684  -0.68113  -0.65189  -0.54453
  Beta  occ. eigenvalues --   -0.53090  -0.47105  -0.40832  -0.39952  -0.38695
  Beta  occ. eigenvalues --   -0.36276  -0.32589  -0.31438  -0.29195  -0.24477
  Beta virt. eigenvalues --   -0.20879  -0.05106  -0.03914  -0.00739   0.01229
  Beta virt. eigenvalues --    0.01551   0.03434   0.03616   0.05213   0.05328
  Beta virt. eigenvalues --    0.07098   0.07904   0.08406   0.08599   0.08721

 Mulliken charges and spin densities:
               1          2
     1  C   -0.181787   0.594954
     2  C    0.142196  -0.150190
     3  C   -0.181210   0.591627
     4  C   -0.181869   0.594976
     5  C    0.142196  -0.150190
     6  C   -0.181132   0.591606
     7  H    0.077369  -0.017453
     8  H    0.066183  -0.001560
     9  H    0.077251  -0.017378
    10  H    0.077372  -0.017454
    11  H    0.066183  -0.001560
    12  H    0.077248  -0.017377
 Sum of Mulliken charges =   0.00000   2.00000

 Dipole moment (field-independent basis, Debye):
    X=              0.0000    Y=              0.0000    Z=              0.0000  Tot=              0.0000
 Quadrupole moment (field-independent basis, Debye-Ang):
   XX=            -33.0200   YY=            -32.2330   ZZ=            -40.5980
   XY=             -0.0013   XZ=              0.0001   YZ=              0.0001

 Normal termination of Gaussian 09 at Thu Jul 14 14:57:07 2016.
