 Gaussian 09, Revision D.01,
 Gaussian 09:  ES64L-G09RevD.01 24-Apr-2013

 -----------------------------
 #p opt 6-311+g(3df,2pd) svwn5
 -----------------------------

 -------
 Benzene
 -------
 Symbolic Z-matrix:
 Charge =  0 Multiplicity = 1

 SCF Done:  E(RS-VWN5) =  -230.171705203     A.U. after   10 cycles
 SCF Done:  E(RS-VWN5) =  -230.172447721     A.U. after    9 cycles
 SCF Done:  E(RS-VWN5) =  -230.172461967     A.U. after    7 cycles
 Optimization completed.
    -- Stationary point found.

                         Standard orientation:
 ---------------------------------------------------------------------
 Center     Atomic      Atomic             Coordinates (Angstroms)
 Number     Number       Type             X           Y           Z
 ---------------------------------------------------------------------
      1          6           0       -1.338138   -0.357527    0.000001
      2          6           0       -0.359278   -1.337319    0.000102
      3          6           0        0.978679   -0.979849   -0.000056
      4          6           0        1.338124    0.357573    0.000019
      5          6           0        0.359325    1.337307    0.000057
      6          6           0       -0.978712    0.979816   -0.000074
      7          1           0       -2.394326   -0.640074   -0.000028
      8          1           0       -0.642873   -2.393261   -0.000039
      9          1           0        1.751313   -1.753437   -0.000168
     10          1           0        2.394352    0.639965   -0.000067
     11          1           0        0.642774    2.393286    0.000087
     12          1           0       -1.751235    1.753518   -0.000083
 ---------------------------------------------------------------------

 The electronic state is 1-A.
 Alpha  occ. eigenvalues --   -9.78568  -9.78566  -9.78566  -9.78531  -9.78531
 Alpha  occ. eigenvalues --   -9.78513  -0.78369  -0.67739  -0.67734  -0.54522
 Alpha  occ. eigenvalues --   -0.54521  -0.47944  -0.40982  -0.40515  -0.37846
 Alpha  occ. eigenvalues --   -0.37838  -0.34454  -0.30362  -0.30356  -0.24167
 Alpha  occ. eigenvalues --   -0.24163
 Alpha virt. eigenvalues --   -0.05116  -0.05114  -0.00906   0.01366   0.01367
 Alpha virt. eigenvalues --    0.03681   0.03682   0.04931   0.04972   0.07292
 Alpha virt. eigenvalues --    0.08043   0.08046   0.08659   0.08895   0.12656

 Mulliken charges:
               1
     1  C   -0.064770
     2  C   -0.065489
     3  C   -0.064393
     4  C   -0.064713
     5  C   -0.065525
     6  C   -0.064341
     7  H    0.064967
     8  H    0.064885
     9  H    0.064764
    10  H    0.064965
    11  H    0.064885
    12  H    0.064765
 Sum of Mulliken charges =   0.00000

 Dipole moment (field-independent basis, Debye):
    X=              0.0000    Y=              0.0000    Z=             -0.0002  Tot=              0.0002
 Quadrupole moment (field-independent basis, Debye-Ang):
   XX=            -32.0376   YY=            -32.0417   ZZ=            -40.1505
   XY=              0.0004   XZ=             -0.0002   YZ=              0.0005

 Normal termination of Gaussian 09 at Tue Jun 21 13:08:27 2016.
