 Gaussian 09, Revision D.01,
 Gaussian 09:  ES64L-G09RevD.01 24-Apr-2013

 -----------------------------------------------------------------
 #p td=(50-50) b3lyp/6-311+g(3df,2pd) geom=allcheck pop=orbitals=6
 -----------------------------------------------------------------

 Structure from the checkpoint file:  "E-b3lyp.chk"
 -------
 Benzene
 -------
 Charge =  0 Multiplicity = 1

                         Standard orientation:
 ---------------------------------------------------------------------
 Center     Atomic      Atomic             Coordinates (Angstroms)
 Number     Number       Type             X           Y           Z
 ---------------------------------------------------------------------
      1          6           0       -1.390907   -0.023916    0.000000
      2          6           0       -0.674609   -1.216285    0.000005
      3          6           0        0.716096   -1.192362    0.000003
      4          6           0        1.390906    0.023976    0.000002
      5          6           0        0.674662    1.216256   -0.000002
      6          6           0       -0.716147    1.192332   -0.000002
      7          1           0       -2.472502   -0.042651   -0.000007
      8          1           0       -1.199291   -2.162308   -0.000014
      9          1           0        1.272993   -2.119778   -0.000020
     10          1           0        2.472503    0.042567   -0.000007
     11          1           0        1.199222    2.162346    0.000003
     12          1           0       -1.272923    2.119820    0.000005
 ---------------------------------------------------------------------

 SCF Done:  E(RB3LYP) =  -232.329121686     A.U. after    9 cycles

 Excitation energies and oscillator strengths:

 Excited State   1:      Triplet-A      3.8418 eV  322.73 nm  f=0.0000  <S**2>=2.000
      20 -> 22        -0.49839
      21 -> 23         0.49863
 This state for optimization and/or second-order correction.
 Total Energy, E(TD-HF/TD-KS) =  -232.187939486
 Copying the excited state density for this state as the 1-particle RhoCI density.

 Excited State   2:      Triplet-A      4.7206 eV  262.64 nm  f=0.0000  <S**2>=2.000
      20 -> 22         0.49480
      21 -> 23         0.49455

 Excited State   3:      Triplet-A      4.7207 eV  262.64 nm  f=0.0000  <S**2>=2.000
      20 -> 23        -0.49391
      21 -> 22         0.49544

 Excited State   4:      Singlet-A      5.4096 eV  229.19 nm  f=0.0000  <S**2>=0.000
      20 -> 23         0.49885
      21 -> 22         0.49929

 Excited State   5:      Singlet-A      6.3351 eV  195.71 nm  f=0.0000  <S**2>=0.000
      21 -> 24         0.70509

 Excited State   6:      Singlet-A      6.3359 eV  195.68 nm  f=0.0000  <S**2>=0.000
      20 -> 24         0.70509

 The electronic state is 1-A.
 Alpha  occ. eigenvalues --  -10.17695 -10.17674 -10.17674 -10.17619 -10.17618
 Alpha  occ. eigenvalues --  -10.17591  -0.86032  -0.75137  -0.75133  -0.60791
 Alpha  occ. eigenvalues --   -0.60790  -0.53002  -0.46555  -0.45294  -0.42747
 Alpha  occ. eigenvalues --   -0.42740  -0.37453  -0.34993  -0.34987  -0.26072
 Alpha  occ. eigenvalues --   -0.26069
 Alpha virt. eigenvalues --   -0.01758  -0.01756   0.00399   0.02193   0.02194
 Alpha virt. eigenvalues --    0.04405   0.04405   0.06040   0.07042   0.07694
 Alpha virt. eigenvalues --    0.08858   0.08882   0.09819   0.12495   0.13923

 Mulliken charges:
               1
     1  C   -0.050061
     2  C   -0.050255
     3  C   -0.049931
     4  C   -0.050056
     5  C   -0.050258
     6  C   -0.049916
     7  H    0.050075
     8  H    0.050082
     9  H    0.050082
    10  H    0.050075
    11  H    0.050082
    12  H    0.050082
 Sum of Mulliken charges =   0.00000

 Dipole moment (field-independent basis, Debye):
    X=              0.0000    Y=              0.0000    Z=              0.0000  Tot=              0.0000
 Quadrupole moment (field-independent basis, Debye-Ang):
   XX=            -32.2855   YY=            -32.2894   ZZ=            -40.0437
   XY=              0.0001   XZ=              0.0000   YZ=              0.0001

 Normal termination of Gaussian 09 at Sat Jul  9 05:22:03 2016.
