 Gaussian 09, Revision D.01,
 Gaussian 09:  ES64L-G09RevD.01 24-Apr-2013

 -----------------------------------------------
 #td=(singlet,nstates=20) 6-311+g(3df,2pd) svwn5
 -----------------------------------------------
 -------
 Benzene
 -------
 Symbolic Z-matrix:
 Charge =  0 Multiplicity = 1

                         Standard orientation:
 ---------------------------------------------------------------------
 Center     Atomic      Atomic             Coordinates (Angstroms)
 Number     Number       Type             X           Y           Z
 ---------------------------------------------------------------------
      1          6           0        1.337897   -0.358428   -0.000001
      2          6           0        0.358378   -1.337561   -0.000102
      3          6           0       -0.979338   -0.979190    0.000056
      4          6           0       -1.337883    0.358474   -0.000019
      5          6           0       -0.358425    1.337549   -0.000057
      6          6           0        0.979372    0.979157    0.000074
      7          1           0        2.393895   -0.641686    0.000028
      8          1           0        0.641262   -2.393693    0.000039
      9          1           0       -1.752493   -1.752258    0.000168
     10          1           0       -2.393921    0.641577    0.000067
     11          1           0       -0.641163    2.393718   -0.000087
     12          1           0        1.752415    1.752339    0.000083
 ---------------------------------------------------------------------

 SCF Done:  E(RS-VWN5) =  -230.172461973     A.U. after   10 cycles

 Excitation energies and oscillator strengths:

 Excited State   1:      Singlet-A      5.3281 eV  232.70 nm  f=0.0000  <S**2>=0.000
      20 -> 22         0.40188
      20 -> 23         0.29680
      21 -> 22        -0.29714
      21 -> 23         0.40199
 This state for optimization and/or second-order correction.
 Total Energy, E(TD-HF/TD-KS) =  -229.976659709
 Copying the excited state density for this state as the 1-particle RhoCI density.

 Excited State   2:      Singlet-A      6.0791 eV  203.95 nm  f=0.0000  <S**2>=0.000
      20 -> 22         0.29415
      20 -> 23        -0.39789
      21 -> 22         0.39863
      21 -> 23         0.29436

 Excited State   3:      Singlet-A      6.3200 eV  196.18 nm  f=0.0000  <S**2>=0.000
      21 -> 24         0.70689

 Excited State   4:      Singlet-A      6.3211 eV  196.14 nm  f=0.0000  <S**2>=0.000
      20 -> 24         0.70689

 Excited State   5:      Singlet-A      6.8965 eV  179.78 nm  f=0.0000  <S**2>=0.000
      18 -> 22        -0.26894
      18 -> 23        -0.41573
      19 -> 22         0.42527
      19 -> 23        -0.27180

 Excited State   6:      Singlet-A      6.9186 eV  179.20 nm  f=0.5554  <S**2>=0.000
      20 -> 22         0.16864
      20 -> 23         0.45108
      20 -> 29         0.10041
      21 -> 22         0.45038
      21 -> 23        -0.16873
      21 -> 29        -0.10291

 Excited State   7:      Singlet-A      6.9191 eV  179.19 nm  f=0.5555  <S**2>=0.000
      20 -> 22         0.45090
      20 -> 23        -0.16891
      20 -> 29         0.10266
      21 -> 22        -0.16855
      21 -> 23        -0.45066

 Excited State   8:      Singlet-A      6.9262 eV  179.01 nm  f=0.0006  <S**2>=0.000
      18 -> 23        -0.11260
      19 -> 22        -0.12056
      20 -> 26        -0.42939
      21 -> 25         0.51300
      21 -> 26        -0.12878

 Excited State   9:      Singlet-A      6.9263 eV  179.01 nm  f=0.0000  <S**2>=0.000
      18 -> 22        -0.11583
      19 -> 23         0.11872
      20 -> 25         0.46355
      20 -> 26        -0.10659
      21 -> 25         0.10903
      21 -> 26         0.48296

 Excited State  10:      Singlet-A      6.9331 eV  178.83 nm  f=0.0598  <S**2>=0.000
      18 -> 22        -0.11481
      19 -> 23        -0.11834
      20 -> 25         0.31928
      20 -> 26         0.41319
      21 -> 25         0.32498
      21 -> 26        -0.28768

 Excited State  11:      Singlet-A      6.9475 eV  178.46 nm  f=0.0000  <S**2>=0.000
      20 -> 25         0.39224
      20 -> 26        -0.32736
      21 -> 25        -0.30610
      21 -> 26        -0.38102

 Excited State  12:      Singlet-A      6.9948 eV  177.25 nm  f=0.0000  <S**2>=0.000
      18 -> 22        -0.37200
      18 -> 23         0.29638
      19 -> 22         0.30404
      19 -> 23         0.38971
      20 -> 25        -0.11342
      21 -> 26        -0.11739

 Excited State  13:      Singlet-A      6.9948 eV  177.25 nm  f=0.0000  <S**2>=0.000
      18 -> 22         0.30550
      18 -> 23         0.38227
      19 -> 22         0.37950
      19 -> 23        -0.29512
      20 -> 26        -0.11599
      21 -> 25         0.11469

 Excited State  14:      Singlet-A      7.0248 eV  176.49 nm  f=0.0007  <S**2>=0.000
      18 -> 22         0.40932
      18 -> 23        -0.26832
      19 -> 22         0.25088
      19 -> 23         0.39793
      20 -> 26         0.10973
      21 -> 25         0.10591

 Excited State  15:      Singlet-A      7.5567 eV  164.07 nm  f=0.0000  <S**2>=0.000
      20 -> 27        -0.35248
      20 -> 28        -0.33532
      21 -> 27        -0.35730
      21 -> 28         0.36821

 Excited State  16:      Singlet-A      7.5777 eV  163.62 nm  f=0.0000  <S**2>=0.000
      20 -> 27         0.25072
      20 -> 28        -0.41828
      21 -> 27         0.42971
      21 -> 28         0.27610

 Excited State  17:      Singlet-A      7.5777 eV  163.62 nm  f=0.0000  <S**2>=0.000
      20 -> 27         0.43281
      20 -> 28         0.27228
      21 -> 27        -0.25439
      21 -> 28         0.41536

 Excited State  18:      Singlet-A      7.5998 eV  163.14 nm  f=0.0000  <S**2>=0.000
      20 -> 27        -0.35318
      20 -> 28         0.37098
      21 -> 27         0.34948
      21 -> 28         0.33888

 Excited State  19:      Singlet-A      7.9412 eV  156.13 nm  f=0.0000  <S**2>=0.000
      20 -> 29        -0.44912
      21 -> 29         0.52402

 Excited State  20:      Singlet-A      7.9432 eV  156.09 nm  f=0.0000  <S**2>=0.000
      20 -> 29         0.52398
      21 -> 29         0.44923

 The electronic state is 1-A.
 Alpha  occ. eigenvalues --   -9.78568  -9.78566  -9.78566  -9.78531  -9.78531
 Alpha  occ. eigenvalues --   -9.78513  -0.78369  -0.67739  -0.67734  -0.54522
 Alpha  occ. eigenvalues --   -0.54521  -0.47944  -0.40982  -0.40515  -0.37846
 Alpha  occ. eigenvalues --   -0.37838  -0.34454  -0.30362  -0.30356  -0.24167
 Alpha  occ. eigenvalues --   -0.24163
 Alpha virt. eigenvalues --   -0.05116  -0.05114  -0.00906   0.01366   0.01367
 Alpha virt. eigenvalues --    0.03681   0.03682   0.04931   0.04972   0.07292
 Alpha virt. eigenvalues --    0.08043   0.08046   0.08659   0.08895   0.12656

 Mulliken charges:
               1
     1  C   -0.064769
     2  C   -0.065490
     3  C   -0.064386
     4  C   -0.064724
     5  C   -0.065520
     6  C   -0.064343
     7  H    0.064967
     8  H    0.064885
     9  H    0.064764
    10  H    0.064966
    11  H    0.064885
    12  H    0.064765
 Sum of Mulliken charges =   0.00000

 Dipole moment (field-independent basis, Debye):
    X=              0.0000    Y=              0.0000    Z=              0.0002  Tot=              0.0002
 1\1\GINC-C13B-14\SP\RSVWN5 TD-FC\6-311+G(3df,2pd)\C6H6\EPLUHAR\24-Jun-
 2016\0\\#td=(singlet,nstates=20) 6-311+g(3df,2pd) svwn5\\Benzene\\0,1\
 C,0,-1.338138,-0.357527,0.000001\C,0,-0.359278,-1.337319,0.000102\C,0,
 0.978679,-0.979849,-0.000056\C,0,1.338124,0.357573,0.000019\C,0,0.3593
 25,1.337307,0.000057\C,0,-0.978712,0.979816,-0.000074\H,0,-2.394326,-0
 .640074,-0.000028\H,0,-0.642873,-2.393261,-0.000039\H,0,1.751313,-1.75
 3437,-0.000168\H,0,2.394352,0.639965,-0.000067\H,0,0.642774,2.393286,0
 .000087\H,0,-1.751235,1.753518,-0.000083\\Version=ES64L-G09RevD.01\Sta
 te=1-A\HF=-230.172462\RMSD=3.198e-09\PG=C01 [X(C6H6)]\\@

 Normal termination of Gaussian 09 at Fri Jun 24 13:18:14 2016.
