 Gaussian 09, Revision D.01,
 Gaussian 09:  ES64L-G09RevD.01 24-Apr-2013

 ------------------------------------------
 #opt 6-311+g(3df,2pd) pop=orbitals=6 svwn5
 ------------------------------------------

 -------
 Benzene
 -------
 Symbolic Z-matrix:
 Charge =  0 Multiplicity = 3

 SCF Done:  E(US-VWN5) =  -230.002888916     A.U. after   22 cycles
 SCF Done:  E(US-VWN5) =  -230.017291454     A.U. after   12 cycles
 SCF Done:  E(US-VWN5) =  -230.018154985     A.U. after   10 cycles
 SCF Done:  E(US-VWN5) =  -230.018194420     A.U. after    9 cycles
 SCF Done:  E(US-VWN5) =  -230.018195474     A.U. after    8 cycles
 Optimization completed.
    -- Stationary point found.

                         Standard orientation:
 ---------------------------------------------------------------------
 Center     Atomic      Atomic             Coordinates (Angstroms)
 Number     Number       Type             X           Y           Z
 ---------------------------------------------------------------------
      1          6           0        0.747362   -1.202205   -0.000066
      2          6           0        1.427053   -0.003530    0.000001
      3          6           0        0.754118    1.198150    0.000061
      4          6           0       -0.747375    1.202209   -0.000066
      5          6           0       -1.427053    0.003525    0.000003
      6          6           0       -0.754105   -1.198147    0.000066
      7          1           0        1.280622   -2.153955   -0.000194
      8          1           0        2.521432   -0.006580    0.000006
      9          1           0        1.292409    2.147079    0.000209
     10          1           0       -1.280621    2.153965   -0.000205
     11          1           0       -2.521432    0.006557    0.000007
     12          1           0       -1.292410   -2.147069    0.000183
 ---------------------------------------------------------------------

 The electronic state is 3-A.
 Alpha  occ. eigenvalues --   -9.79952  -9.79944  -9.79934  -9.79934  -9.78748
 Alpha  occ. eigenvalues --   -9.78744  -0.78005  -0.68903  -0.67253  -0.56000
 Alpha  occ. eigenvalues --   -0.53997  -0.47783  -0.41773  -0.40987  -0.38943
 Alpha  occ. eigenvalues --   -0.37383  -0.35063  -0.32186  -0.29985  -0.25895
 Alpha  occ. eigenvalues --   -0.25010  -0.09198
 Alpha virt. eigenvalues --   -0.05251  -0.01065   0.01097   0.01238   0.03071
 Alpha virt. eigenvalues --    0.03484   0.04627   0.04686   0.06243   0.06902
 Alpha virt. eigenvalues --    0.07633   0.07652   0.08420   0.12047   0.12188

  Beta  occ. eigenvalues --   -9.79084  -9.79077  -9.79072  -9.79071  -9.78914
  Beta  occ. eigenvalues --   -9.78912  -0.76684  -0.68113  -0.65189  -0.54453
  Beta  occ. eigenvalues --   -0.53090  -0.47105  -0.40833  -0.39952  -0.38696
  Beta  occ. eigenvalues --   -0.36275  -0.32589  -0.31438  -0.29195  -0.24477
  Beta virt. eigenvalues --   -0.20878  -0.05106  -0.03914  -0.00739   0.01229
  Beta virt. eigenvalues --    0.01551   0.03434   0.03616   0.05213   0.05329
  Beta virt. eigenvalues --    0.07098   0.07904   0.08406   0.08599   0.08721

 Mulliken charges and spin densities:
               1          2
     1  C   -0.182091   0.595477
     2  C    0.142178  -0.150187
     3  C   -0.180891   0.591100
     4  C   -0.182172   0.595499
     5  C    0.142178  -0.150187
     6  C   -0.180813   0.591079
     7  H    0.077342  -0.017461
     8  H    0.066186  -0.001560
     9  H    0.077278  -0.017370
    10  H    0.077345  -0.017461
    11  H    0.066186  -0.001560
    12  H    0.077275  -0.017369
 Sum of Mulliken charges =   0.00000   2.00000

 Dipole moment (field-independent basis, Debye):
    X=              0.0000    Y=              0.0000    Z=              0.0000  Tot=              0.0000
 Quadrupole moment (field-independent basis, Debye-Ang):
   XX=            -33.0196   YY=            -32.2332   ZZ=            -40.5980
   XY=              0.0000   XZ=              0.0001   YZ=              0.0000

 Normal termination of Gaussian 09 at Sun Jun 26 00:25:05 2016.
