 Gaussian 09, Revision D.01,
 Gaussian 09:  ES64L-G09RevD.01 24-Apr-2013

 ----------------------------------------------------------------------
 #p td=(singlets,nstates=35) b3lyp/6-311+g(3df,2pd) geom=allcheck pop=o
 rbitals=6
 ----------------------------------------------------------------------

 Structure from the checkpoint file:  "E-b3lyp.chk"
 -------
 Benzene
 -------
 Charge =  0 Multiplicity = 1

                         Standard orientation:
 ---------------------------------------------------------------------
 Center     Atomic      Atomic             Coordinates (Angstroms)
 Number     Number       Type             X           Y           Z
 ---------------------------------------------------------------------
      1          6           0       -1.390907   -0.023916    0.000000
      2          6           0       -0.674609   -1.216285    0.000005
      3          6           0        0.716096   -1.192362    0.000003
      4          6           0        1.390906    0.023976    0.000002
      5          6           0        0.674662    1.216256   -0.000002
      6          6           0       -0.716147    1.192332   -0.000002
      7          1           0       -2.472502   -0.042651   -0.000007
      8          1           0       -1.199291   -2.162308   -0.000014
      9          1           0        1.272993   -2.119778   -0.000020
     10          1           0        2.472503    0.042567   -0.000007
     11          1           0        1.199222    2.162346    0.000003
     12          1           0       -1.272923    2.119820    0.000005
 ---------------------------------------------------------------------

 SCF Done:  E(RB3LYP) =  -232.329121686     A.U. after    9 cycles

 Excitation energies and oscillator strengths:

 Excited State   1:      Singlet-A      5.4096 eV  229.19 nm  f=0.0000  <S**2>=0.000
      20 -> 23         0.49885
      21 -> 22         0.49929
 This state for optimization and/or second-order correction.
 Total Energy, E(TD-HF/TD-KS) =  -232.130321550
 Copying the excited state density for this state as the 1-particle RhoCI density.

 Excited State   2:      Singlet-A      6.0558 eV  204.74 nm  f=0.0000  <S**2>=0.000
      20 -> 22        -0.49736
      21 -> 23         0.49753

 Excited State   3:      Singlet-A      6.3351 eV  195.71 nm  f=0.0000  <S**2>=0.000
      21 -> 24         0.70509

 Excited State   4:      Singlet-A      6.3359 eV  195.68 nm  f=0.0000  <S**2>=0.000
      20 -> 24         0.70509

 Excited State   5:      Singlet-A      6.8591 eV  180.76 nm  f=0.0599  <S**2>=0.000
      20 -> 26         0.49048
      21 -> 25         0.50361

 Excited State   6:      Singlet-A      6.8955 eV  179.81 nm  f=0.0000  <S**2>=0.000
      20 -> 26         0.50294
      21 -> 25        -0.48987

 Excited State   7:      Singlet-A      6.8955 eV  179.80 nm  f=0.0000  <S**2>=0.000
      20 -> 25         0.49428
      21 -> 26         0.49861

 Excited State   8:      Singlet-A      6.9596 eV  178.15 nm  f=0.5902  <S**2>=0.000
      20 -> 23         0.48255
      21 -> 22        -0.48213
      21 -> 29         0.14366

 Excited State   9:      Singlet-A      6.9603 eV  178.13 nm  f=0.5905  <S**2>=0.000
      20 -> 22         0.48253
      20 -> 29         0.14294
      21 -> 23         0.48233

 Excited State  10:      Singlet-A      6.9667 eV  177.97 nm  f=0.0000  <S**2>=0.000
      20 -> 25         0.50086
      21 -> 26        -0.49660

 Excited State  11:      Singlet-A      7.5338 eV  164.57 nm  f=0.0000  <S**2>=0.000
      20 -> 27         0.48378
      21 -> 28         0.51311

 Excited State  12:      Singlet-A      7.5442 eV  164.34 nm  f=0.0000  <S**2>=0.000
      20 -> 28         0.43612
      21 -> 27         0.55332

 Excited State  13:      Singlet-A      7.5442 eV  164.34 nm  f=0.0000  <S**2>=0.000
      20 -> 27         0.51263
      21 -> 28        -0.48328

 Excited State  14:      Singlet-A      7.5480 eV  164.26 nm  f=0.0000  <S**2>=0.000
      20 -> 28         0.55414
      21 -> 27        -0.43717

 Excited State  15:      Singlet-A      7.6196 eV  162.72 nm  f=0.0000  <S**2>=0.000
      18 -> 23         0.49309
      19 -> 22         0.50288

 Excited State  16:      Singlet-A      7.7164 eV  160.68 nm  f=0.0001  <S**2>=0.000
      18 -> 22         0.44437
      19 -> 23         0.54461

 Excited State  17:      Singlet-A      7.7165 eV  160.68 nm  f=0.0000  <S**2>=0.000
      18 -> 23         0.50186
      19 -> 22        -0.49210

 Excited State  18:      Singlet-A      7.7216 eV  160.57 nm  f=0.0082  <S**2>=0.000
      18 -> 22         0.54613
      19 -> 23        -0.44627

 Excited State  19:      Singlet-A      7.8766 eV  157.41 nm  f=0.0000  <S**2>=0.000
      20 -> 29         0.68227
      21 -> 29         0.10915

 Excited State  20:      Singlet-A      7.8770 eV  157.40 nm  f=0.0000  <S**2>=0.000
      20 -> 29        -0.10917
      21 -> 29         0.68211

 Excited State  21:      Singlet-A      7.9855 eV  155.26 nm  f=0.0000  <S**2>=0.000
      21 -> 30         0.70492

 Excited State  22:      Singlet-A      7.9861 eV  155.25 nm  f=0.0000  <S**2>=0.000
      20 -> 30         0.70492

 Excited State  23:      Singlet-A      8.4997 eV  145.87 nm  f=0.0000  <S**2>=0.000
      21 -> 31         0.70490

 Excited State  24:      Singlet-A      8.5005 eV  145.86 nm  f=0.0000  <S**2>=0.000
      20 -> 31         0.70490

 Excited State  25:      Singlet-A      8.6091 eV  144.02 nm  f=0.0000  <S**2>=0.000
      17 -> 22        -0.18383
      20 -> 33        -0.46827
      21 -> 32         0.48815

 Excited State  26:      Singlet-A      8.6095 eV  144.01 nm  f=0.0000  <S**2>=0.000
      17 -> 23         0.18425
      20 -> 32         0.49167
      21 -> 33         0.46430

 Excited State  27:      Singlet-A      8.7064 eV  142.41 nm  f=0.0000  <S**2>=0.000
      20 -> 32        -0.48704
      21 -> 33         0.51202

 Excited State  28:      Singlet-A      8.7995 eV  140.90 nm  f=0.0000  <S**2>=0.000
      19 -> 24         0.69576

 Excited State  29:      Singlet-A      8.8003 eV  140.89 nm  f=0.0000  <S**2>=0.000
      18 -> 24        -0.39103
      20 -> 33         0.38030
      21 -> 32         0.43476

 Excited State  30:      Singlet-A      8.8012 eV  140.87 nm  f=0.0000  <S**2>=0.000
      18 -> 24         0.57546
      20 -> 33         0.33255
      21 -> 32         0.21957

 Excited State  31:      Singlet-A      8.9431 eV  138.64 nm  f=0.0000  <S**2>=0.000
      21 -> 34         0.70521

 Excited State  32:      Singlet-A      8.9439 eV  138.62 nm  f=0.0000  <S**2>=0.000
      20 -> 34         0.70521

 Excited State  33:      Singlet-A      8.9445 eV  138.61 nm  f=0.0000  <S**2>=0.000
      17 -> 22         0.63022
      20 -> 33        -0.11470
      20 -> 35         0.24921
      21 -> 32         0.11014

 Excited State  34:      Singlet-A      8.9450 eV  138.61 nm  f=0.0000  <S**2>=0.000
      17 -> 23         0.63009
      20 -> 32        -0.11110
      21 -> 33        -0.11439
      21 -> 35        -0.24969

 Excited State  35:      Singlet-A      9.3136 eV  133.12 nm  f=0.0000  <S**2>=0.000
      18 -> 26         0.48485
      19 -> 25         0.50625

 The electronic state is 1-A.
 Alpha  occ. eigenvalues --  -10.17695 -10.17674 -10.17674 -10.17619 -10.17618
 Alpha  occ. eigenvalues --  -10.17591  -0.86032  -0.75137  -0.75133  -0.60791
 Alpha  occ. eigenvalues --   -0.60790  -0.53002  -0.46555  -0.45294  -0.42747
 Alpha  occ. eigenvalues --   -0.42740  -0.37453  -0.34993  -0.34987  -0.26072
 Alpha  occ. eigenvalues --   -0.26069
 Alpha virt. eigenvalues --   -0.01758  -0.01756   0.00399   0.02193   0.02194
 Alpha virt. eigenvalues --    0.04405   0.04405   0.06040   0.07042   0.07694
 Alpha virt. eigenvalues --    0.08858   0.08882   0.09819   0.12495   0.13923

 Mulliken charges:
               1
     1  C   -0.050061
     2  C   -0.050255
     3  C   -0.049931
     4  C   -0.050056
     5  C   -0.050258
     6  C   -0.049916
     7  H    0.050075
     8  H    0.050082
     9  H    0.050082
    10  H    0.050075
    11  H    0.050082
    12  H    0.050082
 Sum of Mulliken charges =   0.00000

 Dipole moment (field-independent basis, Debye):
    X=              0.0000    Y=              0.0000    Z=              0.0000  Tot=              0.0000
 Quadrupole moment (field-independent basis, Debye-Ang):
   XX=            -32.2855   YY=            -32.2894   ZZ=            -40.0437
   XY=              0.0001   XZ=              0.0000   YZ=              0.0001

 Normal termination of Gaussian 09 at Thu Jul 14 10:55:27 2016.
