 Gaussian 09, Revision D.01,
 Gaussian 09:  ES64L-G09RevD.01 24-Apr-2013

 ------------------------------------------------------
 # opt freq=raman mp2(full)/6-311+g** geom=connectivity
 ------------------------------------------------------

 -------------------
 Title Card Required
 -------------------
 Symbolic Z-matrix:
 Charge =  0 Multiplicity = 1

 SCF Done:  E(RHF) =  -152.085143677     A.U. after   11 cycles
 E2 =    -0.4866616305D+00 EUMP2 =    -0.15257180530748D+03
 SCF Done:  E(RHF) =  -152.095698473     A.U. after   10 cycles
 E2 =    -0.4864451862D+00 EUMP2 =    -0.15258214365884D+03
 SCF Done:  E(RHF) =  -152.057509980     A.U. after   12 cycles
 E2 =    -0.4995828780D+00 EUMP2 =    -0.15255709285836D+03
 SCF Done:  E(RHF) =  -152.093806626     A.U. after   11 cycles
 E2 =    -0.4905745711D+00 EUMP2 =    -0.15258438119680D+03
 SCF Done:  E(RHF) =  -152.099347536     A.U. after   11 cycles
 E2 =    -0.4849105244D+00 EUMP2 =    -0.15258425806024D+03
 SCF Done:  E(RHF) =  -152.109789709     A.U. after   10 cycles
 E2 =    -0.4845472641D+00 EUMP2 =    -0.15259433697351D+03
 SCF Done:  E(RHF) =  -152.110961756     A.U. after   10 cycles
 E2 =    -0.4841879559D+00 EUMP2 =    -0.15259514971156D+03
 SCF Done:  E(RHF) =  -152.111073203     A.U. after   10 cycles
 E2 =    -0.4844340708D+00 EUMP2 =    -0.15259550727365D+03
 SCF Done:  E(RHF) =  -152.055693443     A.U. after   11 cycles
 E2 =    -0.4746055210D+00 EUMP2 =    -0.15253029896426D+03
 SCF Done:  E(RHF) =  -152.111362081     A.U. after   11 cycles
 E2 =    -0.4841463353D+00 EUMP2 =    -0.15259550841679D+03
 E2 =    -0.4840177328D+00 EUMP2 =    -0.15259554806038D+03
 E2 =    -0.4835385546D+00 EUMP2 =    -0.15259572837575D+03
 E2 =    -0.4840217949D+00 EUMP2 =    -0.15259575553701D+03
 E2 =    -0.4837472376D+00 EUMP2 =    -0.15259579847654D+03
 E2 =    -0.4836387424D+00 EUMP2 =    -0.15259582187493D+03
 E2 =    -0.4835334922D+00 EUMP2 =    -0.15259586753355D+03
 E2 =    -0.4841477109D+00 EUMP2 =    -0.15259425969807D+03
 E2 =    -0.4836441129D+00 EUMP2 =    -0.15259592410387D+03
 SCF Done:  E(RHF) =  -152.112147163     A.U. after    9 cycles
 E2 =    -0.4837980657D+00 EUMP2 =    -0.15259594522835D+03
 SCF Done:  E(RHF) =  -152.111980870     A.U. after    8 cycles
 E2 =    -0.4839750215D+00 EUMP2 =    -0.15259595589144D+03
 SCF Done:  E(RHF) =  -152.111973006     A.U. after    8 cycles
 E2 =    -0.4839843766D+00 EUMP2 =    -0.15259595738245D+03
 SCF Done:  E(RHF) =  -152.111994985     A.U. after    7 cycles
 E2 =    -0.4839627855D+00 EUMP2 =    -0.15259595777058D+03
 Optimization completed.
    -- Stationary point found.
 Normal termination of Gaussian 09 at Thu Oct 13 11:58:13 2016.

 ----------------------------------------------------------------------
 #N Geom=AllCheck Guess=TCheck SCRF=Check GenChk RMP2-Full/6-311+G(d,p)
  Freq
 ----------------------------------------------------------------------

 Structure from the checkpoint file:  "H20Aggmp2.chk"
 -------------------
 Title Card Required
 -------------------
 Charge =  0 Multiplicity = 1

                         Standard orientation:
 ---------------------------------------------------------------------
 Center     Atomic      Atomic             Coordinates (Angstroms)
 Number     Number       Type             X           Y           Z
 ---------------------------------------------------------------------
      1          8           0       -0.035764   -1.551724    0.000000
      2          1           0        0.077609   -0.594299    0.000000
      3          1           0        0.861790   -1.886483    0.000000
      4          8           0       -0.035764    1.376142    0.000000
      5          1           0        0.551884    2.134068    0.000000
      6          1           0       -0.919065    1.751376    0.000000
 ---------------------------------------------------------------------

 SCF Done:  E(RHF) =  -152.111994985     A.U. after    1 cycles
 E2 =    -0.4839627856D+00 EUMP2 =    -0.15259595777067D+03
 E2 =    -0.4839627856D+00 EUMP2 =    -0.15259595777067D+03
 SCF Done:  E(RHF) =  -152.111824161     A.U. after    7 cycles
 E2 =    -0.4839675654D+00 EUMP2 =    -0.15259579172621D+03
 E2 =    -0.4839675654D+00 EUMP2 =    -0.15259579172621D+03
 SCF Done:  E(RHF) =  -152.112167368     A.U. after    7 cycles
 E2 =    -0.4839580930D+00 EUMP2 =    -0.15259612546077D+03
 E2 =    -0.4839580930D+00 EUMP2 =    -0.15259612546077D+03
 SCF Done:  E(RHF) =  -152.111501212     A.U. after    7 cycles
 E2 =    -0.4839772105D+00 EUMP2 =    -0.15259547842234D+03
 E2 =    -0.4839772105D+00 EUMP2 =    -0.15259547842234D+03
 SCF Done:  E(RHF) =  -152.112490471     A.U. after    7 cycles
 E2 =    -0.4839485279D+00 EUMP2 =    -0.15259643899896D+03
 E2 =    -0.4839485279D+00 EUMP2 =    -0.15259643899896D+03
 SCF Done:  E(RHF) =  -152.111995605     A.U. after    7 cycles
 E2 =    -0.4839629150D+00 EUMP2 =    -0.15259595852028D+03
 E2 =    -0.4839629150D+00 EUMP2 =    -0.15259595852028D+03

 Alpha  occ. eigenvalues --  -20.59152 -20.53217  -1.38053  -1.32117  -0.74526
 Alpha  occ. eigenvalues --   -0.69294  -0.61371  -0.54983  -0.53672  -0.47726
 Alpha virt. eigenvalues --    0.12284   0.17095   0.19726   0.22710   0.23067
 Alpha virt. eigenvalues --    0.24118   0.26604   0.28663   0.28969   0.34333
 Alpha virt. eigenvalues --    0.39046   0.42498   0.65336   0.67742   0.70155

 Mulliken charges:
               1
     1  O   -0.602904
     2  H    0.388087
     3  H    0.241359
     4  O   -0.593403
     5  H    0.291388
     6  H    0.275473
 Sum of Mulliken charges =   0.00000

 Dipole moment (field-independent basis, Debye):
    X=              1.2724    Y=              3.6623    Z=             -0.0114  Tot=              3.8771
 Quadrupole moment (field-independent basis, Debye-Ang):
   XX=            -10.2095   YY=             -8.9889   ZZ=            -15.7024
   XY=             -4.0402   XZ=             -0.0001   YZ=              0.0008

  Exact polarizability:  14.806  -0.548  16.912   0.000   0.000  13.488
 Approx polarizability:  11.774  -0.340  11.661   0.001   0.001   8.664

 ******    2 imaginary frequencies (negative Signs) ******

                      1                      2                      3
                     A"                     A"                     A'
 Frequencies --   -222.2853               -94.4937               136.9102
 Red. masses --      1.1631                 1.0573                 1.3551
 Frc consts  --      0.0339                 0.0056                 0.0150
 IR Inten    --    144.1217               275.9791                59.4524
 Raman Activ --      0.2166                 0.1377                 0.2660

                      4                      5                      6
                     A'                     A'                     A"
 Frequencies --    175.4349               402.9396               467.9187
 Red. masses --      2.7329                 1.0850                 1.0415
 Frc consts  --      0.0496                 0.1038                 0.1344
 IR Inten    --     26.9460               122.5555               140.4027
 Raman Activ --      0.0903                 0.3838                 0.6457

                      7                      8                      9
                     A'                     A'                     A'
 Frequencies --   1635.2286              1670.2030              3830.7221
 Red. masses --      1.0849                 1.0757                 1.0514
 Frc consts  --      1.7093                 1.7681                 9.0904
 IR Inten    --     69.3936                44.0456               217.0180
 Raman Activ --      2.4556                 6.0906               134.2445

                     10                     11                     12
                     A'                     A'                     A'
 Frequencies --   3883.5200              3982.5890              4004.4549
 Red. masses --      1.0458                 1.0760                 1.0818
 Frc consts  --      9.2927                10.0556                10.2208
 IR Inten    --     12.3404               109.4070                93.9448
 Raman Activ --     72.5175                42.0625                30.8809

 - Thermochemistry -
 -------------------
 Temperature   298.150 Kelvin.  Pressure   1.00000 Atm.
 Atom     1 has atomic number  8 and mass  15.99491

 Molecular mass:    36.02113 amu.
 Principal axes and moments of inertia in atomic units:
                           1         2         3
     Eigenvalues --     6.75530 287.21017 293.96548
           X           -0.02601   0.99966   0.00000
           Y            0.99966   0.02601   0.00000
           Z            0.00000   0.00000   1.00000
 This molecule is an asymmetric top.
 Rotational symmetry number  1.
 Rotational temperatures (Kelvin)     12.82160     0.30157     0.29464
 Rotational constants (GHZ):         267.15916     6.28370     6.13930
    2 imaginary frequencies ignored.
 Zero-point vibrational energy     120762.5 (Joules/Mol)
                                   28.86294 (Kcal/Mol)
 Warning -- explicit consideration of   4 degrees of freedom as
           vibrations may cause significant error
 Vibrational temperatures:    196.98   252.41   579.74   673.23  2352.73
          (Kelvin)           2403.05  5511.55  5587.51  5730.05  5761.51

 Zero-point correction=                           0.045996 (Hartree/Particle)
 Thermal correction to Energy=                    0.050656
 Thermal correction to Enthalpy=                  0.051600
 Thermal correction to Gibbs Free Energy=         0.020917
 Sum of electronic and zero-point Energies=           -152.549962
 Sum of electronic and thermal Energies=              -152.545302
 Sum of electronic and thermal Enthalpies=            -152.544358
 Sum of electronic and thermal Free Energies=         -152.575040

                     E (Thermal)             CV                S
                      KCal/Mol        Cal/Mol-Kelvin    Cal/Mol-Kelvin
 Total                   31.787             12.623             64.577
 Electronic               0.000              0.000              0.000
 Translational            0.889              2.981             36.674
 Rotational               0.889              2.981             20.972
 Vibrational             30.010              6.661              6.931
 Vibration     1          0.614              1.916              2.847
 Vibration     2          0.627              1.873              2.376
 Vibration     3          0.768              1.464              0.952
 Vibration     4          0.825              1.321              0.743

 Optimization completed.
    -- Stationary point found.
 Normal termination of Gaussian 09 at Thu Oct 13 12:06:48 2016.
