 Gaussian 09, Revision D.01,
 Gaussian 09:  ES64L-G09RevD.01 24-Apr-2013

 ------------------------------------------------------
 # opt freq=raman mp2(full)/6-311+g** geom=connectivity
 ------------------------------------------------------

 -------------------
 Title Card Required
 -------------------
 Symbolic Z-matrix:
 Charge =  1 Multiplicity = 1

 SCF Done:  E(RHF) =  -83.2730513162     A.U. after   10 cycles
 E2 =    -0.2506101254D+00 EUMP2 =    -0.83523661441661D+02
 SCF Done:  E(RHF) =  -83.3209650300     A.U. after    9 cycles
 E2 =    -0.2514839514D+00 EUMP2 =    -0.83572448981417D+02
 SCF Done:  E(RHF) =  -83.3444533174     A.U. after    9 cycles
 E2 =    -0.2538415891D+00 EUMP2 =    -0.83598294906434D+02
 SCF Done:  E(RHF) =  -83.3459686147     A.U. after    8 cycles
 E2 =    -0.2531979039D+00 EUMP2 =    -0.83599166518576D+02
 SCF Done:  E(RHF) =  -83.3464689524     A.U. after    8 cycles
 E2 =    -0.2528854601D+00 EUMP2 =    -0.83599354412535D+02
 SCF Done:  E(RHF) =  -83.3464962485     A.U. after    7 cycles
 E2 =    -0.2528715294D+00 EUMP2 =    -0.83599367777862D+02
 SCF Done:  E(RHF) =  -83.3465372216     A.U. after    8 cycles
 E2 =    -0.2528514310D+00 EUMP2 =    -0.83599388652547D+02
 SCF Done:  E(RHF) =  -83.3465238620     A.U. after    7 cycles
 E2 =    -0.2528676361D+00 EUMP2 =    -0.83599391498115D+02
 Optimization completed.
    -- Stationary point found.
 Normal termination of Gaussian 09 at Fri Oct 14 13:28:40 2016.

 ----------------------------------------------------------------------
 #N Geom=AllCheck Guess=TCheck SCRF=Check GenChk RMP2-Full/6-311+G(d,p)
  Freq
 ----------------------------------------------------------------------

 Structure from the checkpoint file:  "Li+OH2mp2.chk"
 -------------------
 Title Card Required
 -------------------
 Charge =  1 Multiplicity = 1

                         Standard orientation:
 ---------------------------------------------------------------------
 Center     Atomic      Atomic             Coordinates (Angstroms)
 Number     Number       Type             X           Y           Z
 ---------------------------------------------------------------------
      1          8           0        0.000061   -0.338311    0.000000
      2          1           0        0.764074   -0.926352    0.000000
      3          1           0       -0.764748   -0.925322    0.000000
      4          3           0        0.000061    1.519388    0.000000
 ---------------------------------------------------------------------

 SCF Done:  E(RHF) =  -83.3465238620     A.U. after    1 cycles
 E2 =    -0.2528676359D+00 EUMP2 =    -0.83599391497946D+02
 E2 =    -0.2528676359D+00 EUMP2 =    -0.83599391497946D+02
 SCF Done:  E(RHF) =  -83.3465244280     A.U. after    6 cycles
 E2 =    -0.2528676478D+00 EUMP2 =    -0.83599392075855D+02
 E2 =    -0.2528676478D+00 EUMP2 =    -0.83599392075855D+02
 SCF Done:  E(RHF) =  -83.3465241055     A.U. after    6 cycles
 E2 =    -0.2528676615D+00 EUMP2 =    -0.83599391766982D+02
 E2 =    -0.2528676615D+00 EUMP2 =    -0.83599391766982D+02
 SCF Done:  E(RHF) =  -83.3459839539     A.U. after    7 cycles
 E2 =    -0.2528639994D+00 EUMP2 =    -0.83598847953307D+02
 E2 =    -0.2528639994D+00 EUMP2 =    -0.83598847953307D+02
 SCF Done:  E(RHF) =  -83.3470645855     A.U. after    7 cycles
 E2 =    -0.2528713559D+00 EUMP2 =    -0.83599935941447D+02
 E2 =    -0.2528713559D+00 EUMP2 =    -0.83599935941447D+02
 SCF Done:  E(RHF) =  -83.3465241852     A.U. after    7 cycles
 E2 =    -0.2528676907D+00 EUMP2 =    -0.83599391875865D+02
 E2 =    -0.2528676907D+00 EUMP2 =    -0.83599391875865D+02

 Alpha  occ. eigenvalues --  -20.81181  -2.70529  -1.59996  -0.96215  -0.86561
 Alpha  occ. eigenvalues --   -0.76095
 Alpha virt. eigenvalues --   -0.15374  -0.10180  -0.09977  -0.09558  -0.06232
 Alpha virt. eigenvalues --   -0.05096  -0.04817  -0.04514   0.00401   0.01028
 Alpha virt. eigenvalues --    0.01598   0.03880   0.06039   0.06092   0.09483

 Mulliken charges:
               1
     1  O   -0.573013
     2  H    0.350067
     3  H    0.349942
     4  Li   0.873004
 Sum of Mulliken charges =   1.00000

 Dipole moment (field-independent basis, Debye):
    X=             -0.0012    Y=              4.1481    Z=             -0.0058  Tot=              4.1481
 Quadrupole moment (field-independent basis, Debye-Ang):
   XX=             -4.4069   YY=              6.9513   ZZ=             -8.0837
   XY=             -0.0004   XZ=              0.0000   YZ=              0.0015

  Exact polarizability:   7.628   0.000   8.091   0.000   0.003   6.805
 Approx polarizability:   6.138   0.000   6.037   0.000   0.001   4.586

                      1                      2                      3
                     A"                     A'                     A'
 Frequencies --    389.4801               524.8518               548.3654
 Red. masses --      1.2347                 1.1994                 6.6501
 Frc consts  --      0.1104                 0.1947                 1.1782
 IR Inten    --    383.0424               154.7635               110.3807
 Raman Activ --      0.0644                 0.1131                 0.3265

                      4                      5                      6
                     A'                     A'                     A'
 Frequencies --   1690.5319              3840.1492              3925.0356
 Red. masses --      1.0824                 1.0467                 1.0818
 Frc consts  --      1.8225                 9.0941                 9.8193
 IR Inten    --    116.4486               107.5990               226.0374
 Raman Activ --      2.2120                66.1382                19.8157

 - Thermochemistry -
 -------------------
 Temperature   298.150 Kelvin.  Pressure   1.00000 Atm.
 Atom     1 has atomic number  8 and mass  15.99491

 Molecular mass:    25.02657 amu.
 Principal axes and moments of inertia in atomic units:
                           1         2         3
     Eigenvalues --     4.20598  68.91434  73.12032
           X            0.00000   1.00000   0.00000
           Y            1.00000   0.00000   0.00000
           Z            0.00000   0.00000   1.00000
 This molecule is an asymmetric top.
 Rotational symmetry number  1.
 Rotational temperatures (Kelvin)     20.59303     1.25683     1.18454
 Rotational constants (GHZ):         429.08959    26.18818    24.68180
 Zero-point vibrational energy      65306.6 (Joules/Mol)
                                   15.60866 (Kcal/Mol)
 Warning -- explicit consideration of   3 degrees of freedom as
           vibrations may cause significant error
 Vibrational temperatures:    560.37   755.14   788.97  2432.30  5525.11
          (Kelvin)           5647.24

 Zero-point correction=                           0.024874 (Hartree/Particle)
 Thermal correction to Energy=                    0.028426
 Thermal correction to Enthalpy=                  0.029370
 Thermal correction to Gibbs Free Energy=         0.003027
 Sum of electronic and zero-point Energies=            -83.574518
 Sum of electronic and thermal Energies=               -83.570966
 Sum of electronic and thermal Enthalpies=             -83.570022
 Sum of electronic and thermal Free Energies=          -83.596365

                     E (Thermal)             CV                S
                      KCal/Mol        Cal/Mol-Kelvin    Cal/Mol-Kelvin
 Total                   17.837              9.830             55.443
 Electronic               0.000              0.000              0.000
 Translational            0.889              2.981             35.589
 Rotational               0.889              2.981             17.701
 Vibrational             16.060              3.869              2.154
 Vibration     1          0.757              1.493              1.002
 Vibration     2          0.880              1.195              0.599
 Vibration     3          0.904              1.143              0.548

 Optimization completed.
    -- Stationary point found.
 Normal termination of Gaussian 09 at Fri Oct 14 13:29:09 2016.
