 Gaussian 09, Revision D.01,
 Gaussian 09:  ES64L-G09RevD.01 24-Apr-2013

 --------------------------------------------
 # opt freq b3lyp/6-311+g** geom=connectivity
 --------------------------------------------

 -------------------
 Title Card Required
 -------------------
 Symbolic Z-matrix:
 Charge =  1 Multiplicity = 1

 SCF Done:  E(RB3LYP) =  -83.7300795312     A.U. after    8 cycles
 SCF Done:  E(RB3LYP) =  -83.7770980813     A.U. after    8 cycles
 SCF Done:  E(RB3LYP) =  -83.8006260784     A.U. after    8 cycles
 SCF Done:  E(RB3LYP) =  -83.8015332508     A.U. after    7 cycles
 SCF Done:  E(RB3LYP) =  -83.8017153106     A.U. after    7 cycles
 SCF Done:  E(RB3LYP) =  -83.8017361139     A.U. after    6 cycles
 SCF Done:  E(RB3LYP) =  -83.8017526468     A.U. after    6 cycles
 SCF Done:  E(RB3LYP) =  -83.8017577794     A.U. after    6 cycles
 SCF Done:  E(RB3LYP) =  -83.8017588580     A.U. after    6 cycles
 Optimization completed.
    -- Stationary point found.
 Normal termination of Gaussian 09 at Fri Oct 14 13:28:39 2016.

 ----------------------------------------------------------------------
 #N Geom=AllCheck Guess=TCheck SCRF=Check GenChk RB3LYP/6-311+G(d,p) Fr
 eq
 ----------------------------------------------------------------------

 Structure from the checkpoint file:  "Li+OH2b3lyp.chk"
 -------------------
 Title Card Required
 -------------------
 Charge =  1 Multiplicity = 1

                         Standard orientation:
 ---------------------------------------------------------------------
 Center     Atomic      Atomic             Coordinates (Angstroms)
 Number     Number       Type             X           Y           Z
 ---------------------------------------------------------------------
      1          8           0        0.000009   -0.335229    0.000000
      2          1           0        0.771551   -0.918630    0.000000
      3          1           0       -0.771651   -0.918460    0.000000
      4          3           0        0.000009    1.506307    0.000000
 ---------------------------------------------------------------------

 SCF Done:  E(RB3LYP) =  -83.8017588580     A.U. after    1 cycles

 The electronic state is 1-A'.
 Alpha  occ. eigenvalues --  -19.37997  -2.25938  -1.26659  -0.78455  -0.67979
 Alpha  occ. eigenvalues --   -0.57433
 Alpha virt. eigenvalues --   -0.22230  -0.17312  -0.15898  -0.14970  -0.09990
 Alpha virt. eigenvalues --   -0.07790  -0.06796  -0.06329  -0.05727  -0.05220
 Alpha virt. eigenvalues --   -0.02944  -0.02121  -0.01111   0.00156   0.01043

 Mulliken charges:
               1
     1  O   -0.543311
     2  H    0.348583
     3  H    0.348563
     4  Li   0.846164
 Sum of Mulliken charges =   1.00000

 Dipole moment (field-independent basis, Debye):
    X=             -0.0002    Y=              4.0326    Z=              0.0000  Tot=              4.0326
 Quadrupole moment (field-independent basis, Debye-Ang):
   XX=             -4.3384   YY=              6.7109   ZZ=             -8.0317
   XY=             -0.0001   XZ=              0.0000   YZ=              0.0000

  Exact polarizability:   7.845   0.000   8.457   0.000   0.000   6.966
 Approx polarizability:   9.582   0.000   9.743   0.000   0.000   7.319

                      1                      2                      3
                     A"                     A'                     A'
 Frequencies --    439.9885               537.4027               556.2612
 Red. masses --      1.2350                 1.2008                 6.6666
 Frc consts  --      0.1409                 0.2043                 1.2154
 IR Inten    --    383.3952               152.3923               111.0477

                      4                      5                      6
                     A'                     A'                     A'
 Frequencies --   1680.1796              3777.5774              3844.8355
 Red. masses --      1.0830                 1.0457                 1.0826
 Frc consts  --      1.8013                 8.7917                 9.4291
 IR Inten    --    125.9275               103.0512               221.6046

 - Thermochemistry -
 -------------------
 Temperature   298.150 Kelvin.  Pressure   1.00000 Atm.
 Atom     1 has atomic number  8 and mass  15.99491

 Molecular mass:    25.02657 amu.
 Principal axes and moments of inertia in atomic units:
                           1         2         3
     Eigenvalues --     4.28547  67.73401  72.01948
           X            0.00000   1.00000   0.00000
           Y            1.00000   0.00000   0.00000
           Z            0.00000   0.00000   1.00000
 This molecule is an asymmetric top.
 Rotational symmetry number  1.
 Rotational temperatures (Kelvin)     20.21103     1.27873     1.20264
 Rotational constants (GHZ):         421.13003    26.64454    25.05907
 Zero-point vibrational energy      64815.1 (Joules/Mol)
                                   15.49119 (Kcal/Mol)
 Warning -- explicit consideration of   3 degrees of freedom as
           vibrations may cause significant error
 Vibrational temperatures:    633.04   773.20   800.33  2417.40  5435.08
          (Kelvin)           5531.85

 Zero-point correction=                           0.024687 (Hartree/Particle)
 Thermal correction to Energy=                    0.028178
 Thermal correction to Enthalpy=                  0.029122
 Thermal correction to Gibbs Free Energy=         0.002890
 Sum of electronic and zero-point Energies=            -83.777072
 Sum of electronic and thermal Energies=               -83.773581
 Sum of electronic and thermal Enthalpies=             -83.772637
 Sum of electronic and thermal Free Energies=          -83.798869

                     E (Thermal)             CV                S
                      KCal/Mol        Cal/Mol-Kelvin    Cal/Mol-Kelvin
 Total                   17.682              9.677             55.210
 Electronic               0.000              0.000              0.000
 Translational            0.889              2.981             35.589
 Rotational               0.889              2.981             17.687
 Vibrational             15.904              3.716              1.934
 Vibration     1          0.800              1.383              0.827
 Vibration     2          0.892              1.167              0.571
 Vibration     3          0.912              1.126              0.531

 Optimization completed.
    -- Stationary point found.
 Normal termination of Gaussian 09 at Fri Oct 14 13:28:42 2016.
