 Gaussian 09, Revision D.01,
 Gaussian 09:  ES64L-G09RevD.01 24-Apr-2013

 -----------------------------------------
 # opt freq rhf/6-31g(d) geom=connectivity
 -----------------------------------------

 -------------------
 Title Card Required
 -------------------
 Symbolic Z-matrix:
 Charge =  0 Multiplicity = 1

 SCF Done:  E(RHF) =  -1102.37880277     A.U. after   16 cycles
 SCF Done:  E(RHF) =  -1102.53649044     A.U. after   13 cycles
 SCF Done:  E(RHF) =  -1102.67718307     A.U. after   14 cycles
 SCF Done:  E(RHF) =  -1102.70884454     A.U. after   14 cycles
 SCF Done:  E(RHF) =  -1102.73417782     A.U. after   15 cycles
 SCF Done:  E(RHF) =  -1102.71448043     A.U. after   16 cycles
 SCF Done:  E(RHF) =  -1102.74886912     A.U. after   15 cycles
 SCF Done:  E(RHF) =  -1102.76298111     A.U. after   15 cycles
 SCF Done:  E(RHF) =  -1102.75243708     A.U. after   16 cycles
 SCF Done:  E(RHF) =  -1102.77086012     A.U. after   14 cycles
 SCF Done:  E(RHF) =  -1102.79071869     A.U. after   11 cycles
 SCF Done:  E(RHF) =  -1102.79072330     A.U. after   10 cycles
 SCF Done:  E(RHF) =  -1102.79072530     A.U. after    9 cycles
 SCF Done:  E(RHF) =  -1102.79072666     A.U. after    9 cycles
 SCF Done:  E(RHF) =  -1102.79072728     A.U. after    8 cycles
 SCF Done:  E(RHF) =  -1102.79072751     A.U. after    8 cycles
 SCF Done:  E(RHF) =  -1102.79072760     A.U. after    7 cycles
 SCF Done:  E(RHF) =  -1102.79072765     A.U. after    7 cycles
 SCF Done:  E(RHF) =  -1102.79072766     A.U. after    7 cycles
 Optimization completed.
    -- Stationary point found.

 1\1\GINC-TC-NODE166\FOpt\RHF\6-31G(d)\C18H22N2O4\MAXB2\23-Sep-2016\0\\
 # opt freq rhf/6-31g(d) geom=connectivity\\Title Card Required\\0,1\O,
 0.9599037297,-2.109329409,-0.8668193152\O,-0.1898847159,-0.210586704,1
 .8038221012\O,1.8459681217,-0.2058570629,2.6762256605\N,-1.6604608676,
 -0.5859158012,-0.3176670517\N,-0.0498429131,-2.7557250901,1.0573994535
 \C,-1.4107841067,-1.9791191753,-0.7965010047\C,-1.5392185272,-2.130739
 5256,-2.3277762334\C,-1.2805756856,-0.8874751928,-3.159872365\C,0.0112
 045155,-0.4507691437,-3.4417522472\C,0.2142173222,0.6829429629,-4.2112

 Normal termination of Gaussian 09 at Fri Sep 23 16:09:15 2016.

 -----------------------------------------------------------------
 #N Geom=AllCheck Guess=TCheck SCRF=Check GenChk RHF/6-31G(d) Freq
 -----------------------------------------------------------------

 Structure from the checkpoint file:  "A02_mod_FF.chk"
 -------------------
 Title Card Required
 -------------------
 Charge =  0 Multiplicity = 1

                         Standard orientation:
 ---------------------------------------------------------------------
 Center     Atomic      Atomic             Coordinates (Angstroms)
 Number     Number       Type             X           Y           Z
 ---------------------------------------------------------------------
      1          8           0        0.092677    0.546571   -0.683205
      2          8           0        0.106261   -2.631414    0.716721
      3          8           0       -1.291413   -3.328568   -0.853721
      4          7           0        1.822620   -0.817295    1.469895
      5          7           0       -1.132054   -0.302102    1.025543
      6          6           0        1.117565    0.500057    1.459107
      7          6           0        2.046344    1.686995    1.123196
      8          6           0        3.276564    1.375215    0.289925
      9          6           0        3.203123    1.210041   -1.090722
     10          6           0        4.345378    0.934549   -1.824165
     11          6           0        5.574680    0.818831   -1.194374
     12          6           0        5.658863    0.983872    0.177129
     13          6           0        4.516230    1.261981    0.910739
     14          6           0       -0.044778    0.276707    0.475380
     15          6           0       -1.877698   -1.355933    0.320021
     16          6           0       -2.662456   -0.862994   -0.900715
     17          6           0       -3.690968    0.196480   -0.565826
     18          6           0       -3.416739    1.547387   -0.746449
     19          6           0       -4.358738    2.513964   -0.431232
     20          6           0       -5.595193    2.145727    0.072910
     21          6           0       -5.882747    0.802461    0.254851
     22          6           0       -4.939067   -0.159904   -0.064510
     23          6           0       -0.940750   -2.556962    0.004192
     24          1           0        1.118357   -1.596224    1.432553
     25          1           0        2.447804   -0.920894    2.251346
     26          1           0        2.361849   -0.989798    0.622113
     27          1           0       -1.049073   -0.494672    1.997905
     28          1           0        0.718783    0.634473    2.456175
     29          1           0        1.439611    2.432954    0.625764
     30          1           0        2.253234    1.289465   -1.583363
     31          1           0        4.273848    0.812832   -2.890054
     32          1           0        6.458259    0.605096   -1.768260
     33          1           0        6.608242    0.902951    0.675287
     34          1           0        4.597224    1.408052    1.975120
     35          1           0       -2.594675   -1.717318    1.049733
     36          1           0       -3.145169   -1.735279   -1.319107
     37          1           0       -1.974529   -0.494953   -1.647759
     38          1           0       -2.459515    1.841100   -1.139534
     39          1           0       -4.128019    3.553998   -0.583522
     40          1           0       -6.328251    2.894959    0.314600
     41          1           0       -6.843114    0.503642    0.637070
     42          1           0       -5.178809   -1.201551    0.068451
     43          8           0        2.580753   -2.625685   -0.504780
     44          1           0        2.619862   -2.645556   -1.451184
     45          1           0        2.371847    2.124617    2.060360
     46          1           0        1.714387   -2.970191   -0.268615
 ---------------------------------------------------------------------

 SCF Done:  E(RHF) =  -1102.79072766     A.U. after    1 cycles

 The electronic state is 1-A.
 Alpha  occ. eigenvalues --  -20.56009 -20.54823 -20.48587 -20.46919 -15.69129
 Alpha  occ. eigenvalues --  -15.59479 -11.37797 -11.33780 -11.31003 -11.27418
 Alpha  occ. eigenvalues --  -11.26346 -11.25936 -11.25413 -11.25023 -11.24826
 Alpha  occ. eigenvalues --  -11.24684 -11.24409 -11.22170 -11.21892 -11.21838
 Alpha  occ. eigenvalues --  -11.21619 -11.21408 -11.21198 -11.20442  -1.42793
 Alpha  occ. eigenvalues --   -1.36739  -1.33938  -1.32738  -1.26269  -1.24701
 Alpha  occ. eigenvalues --   -1.17804  -1.14179  -1.09840  -1.05394  -1.03337
 Alpha  occ. eigenvalues --   -1.02707  -0.99979  -0.98177  -0.92926  -0.87679
 Alpha  occ. eigenvalues --   -0.84787  -0.82762  -0.81295  -0.81121  -0.79869
 Alpha  occ. eigenvalues --   -0.78212  -0.76860  -0.73559  -0.72531  -0.71181
 Alpha  occ. eigenvalues --   -0.70350  -0.68247  -0.68146  -0.66173  -0.65029
 Alpha  occ. eigenvalues --   -0.64017  -0.63422  -0.62825  -0.61769  -0.60913
 Alpha  occ. eigenvalues --   -0.60228  -0.59954  -0.58540  -0.57970  -0.57265
 Alpha  occ. eigenvalues --   -0.56927  -0.56494  -0.55594  -0.54503  -0.53834
 Alpha  occ. eigenvalues --   -0.52054  -0.51305  -0.50675  -0.50414  -0.49986
 Alpha  occ. eigenvalues --   -0.49113  -0.47561  -0.47369  -0.47079  -0.44048
 Alpha  occ. eigenvalues --   -0.43181  -0.39727  -0.37763  -0.35801  -0.35272
 Alpha  occ. eigenvalues --   -0.34888  -0.32002  -0.30940
 Alpha virt. eigenvalues --    0.11867   0.12267   0.13964   0.15735   0.16046
 Alpha virt. eigenvalues --    0.18279   0.20748   0.22546   0.23182   0.24740
 Alpha virt. eigenvalues --    0.24922   0.25611   0.26441   0.27638   0.29022

 Mulliken charges:
               1
     1  O   -0.590946
     2  O   -0.859913
     3  O   -0.641786
     4  N   -0.923246
     5  N   -0.753452
     6  C   -0.111588
     7  C   -0.361247
     8  C   -0.025599
     9  C   -0.215055
    10  C   -0.196634
    11  C   -0.195291
    12  C   -0.191285
    13  C   -0.236730
    14  C    0.767399
    15  C   -0.096093
    16  C   -0.356579
    17  C    0.038926
    18  C   -0.226666
    19  C   -0.197908
    20  C   -0.209224
    21  C   -0.195239
    22  C   -0.228926
    23  C    0.818427
    24  H    0.528394
    25  H    0.424422
    26  H    0.502591
    27  H    0.375971
    28  H    0.219909
    29  H    0.233073
    30  H    0.263944
    31  H    0.214086
    32  H    0.211521
    33  H    0.209187
    34  H    0.192720
    35  H    0.200337
    36  H    0.219299
    37  H    0.214186
    38  H    0.212260
    39  H    0.191944
    40  H    0.192922
    41  H    0.195017
    42  H    0.197677
    43  O   -0.955498
    44  H    0.445729
    45  H    0.193314
    46  H    0.505646
 Sum of Mulliken charges =   0.00000

 Dipole moment (field-independent basis, Debye):
    X=              5.7746    Y=              5.8481    Z=              5.9728  Tot=             10.1597
 Quadrupole moment (field-independent basis, Debye-Ang):
   XX=           -126.5525   YY=           -166.7091   ZZ=           -126.0136
   XY=             -2.4491   XZ=             -2.3272   YZ=             -2.0607

  Exact polarizability: 243.102  -6.376 163.028 -15.433   6.984 158.009
 Approx polarizability: 200.611  -3.185 160.283 -13.196   4.770 172.043

                      1                      2                      3
                      A                      A                      A
 Frequencies --     19.1615                20.9178                30.8399
 Red. masses --      5.0581                 4.9994                 4.7528
 Frc consts  --      0.0011                 0.0013                 0.0027
 IR Inten    --      1.1471                 0.0846                 1.3352
 Raman Activ --      0.9276                 2.8555                 3.1833

                      4                      5                      6
                      A                      A                      A
 Frequencies --     36.0487                38.8000                46.2400
 Red. masses --      4.3126                 7.4475                 4.7125
 Frc consts  --      0.0033                 0.0066                 0.0059
 IR Inten    --      2.6983                 3.0932                 2.0566
 Raman Activ --      3.2611                 3.2703                 7.0744

                      7                      8                      9
                      A                      A                      A
 Frequencies --     55.9480                65.9647                85.3846
 Red. masses --      4.7805                 5.7756                 4.9795
 Frc consts  --      0.0088                 0.0148                 0.0214
 IR Inten    --      3.1533                 8.0036                 1.0637
 Raman Activ --      0.9738                 1.8417                 3.4596

                     10                     11                     12
                      A                      A                      A
 Frequencies --    104.7055               138.4983               170.1934
 Red. masses --      5.4984                 3.9792                 6.8147
 Frc consts  --      0.0355                 0.0450                 0.1163
 IR Inten    --      1.1109                 3.9322                 6.3609
 Raman Activ --      2.7131                 0.9063                 1.8944

                     13                     14                     15
                      A                      A                      A
 Frequencies --    193.2475               194.8190               223.3534
 Red. masses --      4.9963                 4.0449                 6.2171
 Frc consts  --      0.1099                 0.0905                 0.1827
 IR Inten    --     53.2291                44.0004                 5.2309
 Raman Activ --      0.0900                 2.3841                 0.6009

                     16                     17                     18
                      A                      A                      A
 Frequencies --    235.0926               252.6217               272.3422
 Red. masses --      3.4741                 5.6796                 1.6364
 Frc consts  --      0.1131                 0.2136                 0.0715
 IR Inten    --     12.5839                11.1559                22.7889
 Raman Activ --      1.7663                 1.6785                 3.9912

                     19                     20                     21
                      A                      A                      A
 Frequencies --    282.5032               301.7777               324.4462
 Red. masses --      3.2469                 4.0109                 3.4642
 Frc consts  --      0.1527                 0.2152                 0.2149
 IR Inten    --     63.0855                22.6786                58.5932
 Raman Activ --      2.5534                 0.6773                 0.8646

                     22                     23                     24
                      A                      A                      A
 Frequencies --    367.2595               382.1170               415.7057
 Red. masses --      1.9165                 2.4001                 2.2642
 Frc consts  --      0.1523                 0.2065                 0.2305
 IR Inten    --     30.5054                 3.6523                18.8791
 Raman Activ --      0.6821                 0.6612                 2.0799

                     25                     26                     27
                      A                      A                      A
 Frequencies --    424.1231               457.7087               458.0998
 Red. masses --      2.3570                 2.9168                 2.9491
 Frc consts  --      0.2498                 0.3600                 0.3646
 IR Inten    --      7.8408                 0.1922                 0.0359
 Raman Activ --      1.0406                 0.0651                 0.1251

                     28                     29                     30
                      A                      A                      A
 Frequencies --    469.9851               477.6619               516.6468
 Red. masses --      1.9917                 1.3005                 3.5168
 Frc consts  --      0.2592                 0.1748                 0.5531
 IR Inten    --     24.4888                94.6880                 8.7548
 Raman Activ --      1.2063                 0.8302                 2.0296

                     31                     32                     33
                      A                      A                      A
 Frequencies --    531.0059               544.2000               600.1433
 Red. masses --      3.6124                 3.7988                 5.0511
 Frc consts  --      0.6001                 0.6628                 1.0719
 IR Inten    --     39.3551                11.7992                19.1593
 Raman Activ --      3.3411                 0.9589                 1.5347

                     34                     35                     36
                      A                      A                      A
 Frequencies --    623.8758               659.5823               680.6954
 Red. masses --      5.2628                 2.2649                 5.8354
 Frc consts  --      1.2069                 0.5805                 1.5930
 IR Inten    --     25.6540                89.0108                 1.8590
 Raman Activ --      1.7680                 1.9323                 5.2251

                     37                     38                     39
                      A                      A                      A
 Frequencies --    681.6934               688.1650               721.5766
 Red. masses --      6.1952                 2.6431                 2.9724
 Frc consts  --      1.6962                 0.7375                 0.9118
 IR Inten    --      0.3658                13.7056                77.6170
 Raman Activ --      5.2321                 3.5218                 2.5584

                     40                     41                     42
                      A                      A                      A
 Frequencies --    753.8566               776.1140               783.8084
 Red. masses --      2.6354                 1.1819                 1.8930
 Frc consts  --      0.8824                 0.4194                 0.6852
 IR Inten    --     45.7419               249.1812                41.3986
 Raman Activ --      4.7924                 1.9525                 0.5249

                     43                     44                     45
                      A                      A                      A
 Frequencies --    784.7562               826.1392               841.4776
 Red. masses --      1.7560                 2.6462                 2.0332
 Frc consts  --      0.6372                 1.0641                 0.8482
 IR Inten    --     20.8342                62.8831                25.7280
 Raman Activ --      0.7721                 1.1639                 9.4741

                     46                     47                     48
                      A                      A                      A
 Frequencies --    854.8933               857.2191               886.2167
 Red. masses --      3.2608                 4.9642                 2.5550
 Frc consts  --      1.4041                 2.1492                 1.1823
 IR Inten    --     38.5046                32.6223                11.4516
 Raman Activ --      2.8832                 0.4588                 6.7276

                     49                     50                     51
                      A                      A                      A
 Frequencies --    906.5013               934.6001               957.9745
 Red. masses --      5.2455                 2.9323                 2.3905
 Frc consts  --      2.5396                 1.5091                 1.2926
 IR Inten    --     43.0342                 1.2897                 9.4191
 Raman Activ --      3.8131                 5.0511                 4.3037

                     52                     53                     54
                      A                      A                      A
 Frequencies --    962.4182               966.0999               996.3304
 Red. masses --      1.2863                 1.2992                 2.1063
 Frc consts  --      0.7020                 0.7144                 1.2319
 IR Inten    --      0.9455                 2.0809                 1.6796
 Raman Activ --      3.2484                 2.9340                 4.7522

                     55                     56                     57
                      A                      A                      A
 Frequencies --   1037.4123              1045.8362              1053.0777
 Red. masses --      1.6379                 1.9330                 1.6019
 Frc consts  --      1.0386                 1.2457                 1.0467
 IR Inten    --      1.6431                 6.1256                16.8517
 Raman Activ --      2.0039                 3.0965                 1.0653

                     58                     59                     60
                      A                      A                      A
 Frequencies --   1065.3797              1089.9394              1090.1269
 Red. masses --      3.4210                 6.0872                 5.8743
 Frc consts  --      2.2877                 4.2606                 4.1130
 IR Inten    --      2.1347                 0.0712                 0.3400
 Raman Activ --      9.5489                22.4352                30.1254

                     61                     62                     63
                      A                      A                      A
 Frequencies --   1102.0437              1111.0512              1117.3341
 Red. masses --      1.3738                 1.3837                 2.2140
 Frc consts  --      0.9830                 1.0064                 1.6285
 IR Inten    --      0.2816                 0.4042                13.5480
 Raman Activ --      0.2628                 0.4820                 1.5614

                     64                     65                     66
                      A                      A                      A
 Frequencies --   1121.7465              1130.4483              1132.1450
 Red. masses --      1.3632                 2.3166                 2.2466
 Frc consts  --      1.0106                 1.7442                 1.6966
 IR Inten    --      0.9004                 4.9046                 3.1830
 Raman Activ --      1.1497                 6.5374                 6.7240

                     67                     68                     69
                      A                      A                      A
 Frequencies --   1136.4361              1143.1950              1183.1651
 Red. masses --      1.3924                 2.0482                 1.7983
 Frc consts  --      1.0595                 1.5771                 1.4832
 IR Inten    --      1.6471                 4.7967                 1.3330
 Raman Activ --      1.1074                 8.9373                 0.3514

                     70                     71                     72
                      A                      A                      A
 Frequencies --   1186.6518              1190.7285              1209.8604
 Red. masses --      1.8343                 1.8597                 2.5124
 Frc consts  --      1.5218                 1.5535                 2.1668
 IR Inten    --      0.3148                21.7894                 2.4143
 Raman Activ --      0.7794                 8.8191                 1.6221

                     73                     74                     75
                      A                      A                      A
 Frequencies --   1219.9044              1230.4059              1281.1185
 Red. masses --      2.1564                 2.3156                 1.4180
 Frc consts  --      1.8908                 2.0654                 1.3712
 IR Inten    --      5.6903                 5.9330                49.4516
 Raman Activ --      4.3754                 3.1112                 2.8099

                     76                     77                     78
                      A                      A                      A
 Frequencies --   1301.4276              1306.4205              1307.3929
 Red. masses --      1.2247                 1.2624                 1.3378
 Frc consts  --      1.2221                 1.2695                 1.3473
 IR Inten    --      0.5942                10.0206                 5.8967
 Raman Activ --      4.0747                 4.2223                 5.6740

                     79                     80                     81
                      A                      A                      A
 Frequencies --   1312.3796              1322.4674              1327.6775
 Red. masses --      1.3577                 2.3035                 1.7857
 Frc consts  --      1.3778                 2.3736                 1.8546
 IR Inten    --      6.2040                 0.8579                 7.6128
 Raman Activ --      6.8768                 6.9042                 6.8463

                     82                     83                     84
                      A                      A                      A
 Frequencies --   1352.0223              1365.1594              1382.0734
 Red. masses --      2.3214                 1.5130                 1.3707
 Frc consts  --      2.5002                 1.6613                 1.5426
 IR Inten    --    116.5882                20.4856                22.9704
 Raman Activ --      2.6366                 1.1717                 8.2663

                     85                     86                     87
                      A                      A                      A
 Frequencies --   1398.2509              1479.0943              1483.1703
 Red. masses --      1.2833                 2.1385                 1.3878
 Frc consts  --      1.4782                 2.7565                 1.7988
 IR Inten    --     33.7145               263.1361                 1.7748
 Raman Activ --      5.1488                 6.5139                 3.3163

                     88                     89                     90
                      A                      A                      A
 Frequencies --   1484.8765              1503.8405              1516.1374
 Red. masses --      1.3040                 1.3956                 2.2218
 Frc consts  --      1.6940                 1.8595                 3.0091
 IR Inten    --      0.5768                58.6781               306.3512
 Raman Activ --      1.6015                 3.5357                 7.5430

                     91                     92                     93
                      A                      A                      A
 Frequencies --   1525.6703              1528.8681              1560.6436
 Red. masses --      1.3777                 1.3472                 1.6277
 Frc consts  --      1.8893                 1.8554                 2.3357
 IR Inten    --     19.4891                31.4287                22.5895
 Raman Activ --      3.7207                18.5165                 1.6833

                     94                     95                     96
                      A                      A                      A
 Frequencies --   1620.2805              1621.7408              1635.7012
 Red. masses --      2.0978                 1.9992                 1.1241
 Frc consts  --      3.2448                 3.0979                 1.7720
 IR Inten    --      7.8003                10.3352                 6.2561
 Raman Activ --      0.4683                 1.4369                10.9418

                     97                     98                     99
                      A                      A                      A
 Frequencies --   1642.6864              1671.5297              1671.8202
 Red. masses --      1.1013                 2.1506                 2.1924
 Frc consts  --      1.7510                 3.5402                 3.6104
 IR Inten    --      9.4495                29.9032                10.6183
 Raman Activ --      9.8044                 0.4486                 0.8044

                    100                    101                    102
                      A                      A                      A
 Frequencies --   1708.4188              1762.4006              1780.5859
 Red. masses --      1.6629                 1.0988                 1.1759
 Frc consts  --      2.8597                 2.0108                 2.1966
 IR Inten    --    218.3086               387.1300               119.2422
 Raman Activ --      1.5611                 8.3935                 4.4688

                    103                    104                    105
                      A                      A                      A
 Frequencies --   1783.7454              1784.1275              1809.9611
 Red. masses --      4.6017                 5.1817                 5.1285
 Frc consts  --      8.6266                 9.7180                 9.8987
 IR Inten    --      6.9982                 1.3068                 0.7017
 Raman Activ --      9.5953                 8.8439                27.2744

                    106                    107                    108
                      A                      A                      A
 Frequencies --   1812.0827              1841.6813              1865.6204
 Red. masses --      5.2707                 1.0748                 1.2102
 Frc consts  --     10.1971                 2.1479                 2.4818
 IR Inten    --      7.3757               162.3173                85.8951
 Raman Activ --     31.8019                 3.2229                 3.6901

                    109                    110                    111
                      A                      A                      A
 Frequencies --   1944.5742              1977.5439              2953.6859
 Red. masses --      4.3784                 8.2210                 1.0902
 Frc consts  --      9.7546                18.9421                 5.6041
 IR Inten    --    476.8377               200.1179              1145.6226
 Raman Activ --      2.6546                 5.9449                72.5080

                    112                    113                    114
                      A                      A                      A
 Frequencies --   3232.5126              3235.7480              3269.9854
 Red. masses --      1.0684                 1.0853                 1.0860
 Frc consts  --      6.5775                 6.6952                 6.8415
 IR Inten    --     17.4044                22.0824                29.8153
 Raman Activ --     49.4445                65.2303                86.0948

                    115                    116                    117
                      A                      A                      A
 Frequencies --   3276.1760              3287.8677              3324.5393
 Red. masses --      1.0623                 1.1007                 1.1047
 Frc consts  --      6.7180                 7.0106                 7.1941
 IR Inten    --      7.8252                 6.8522                 7.9389
 Raman Activ --     56.6145                47.9812                24.8357

                    118                    119                    120
                      A                      A                      A
 Frequencies --   3340.6040              3341.9554              3349.7859
 Red. masses --      1.0896                 1.0873                 1.0887
 Frc consts  --      7.1644                 7.1548                 7.1974
 IR Inten    --     15.1713                 8.9319                 0.2639
 Raman Activ --     52.3229                30.3981               102.3986

                    121                    122                    123
                      A                      A                      A
 Frequencies --   3362.4545              3364.2658              3373.2424
 Red. masses --      1.0928                 1.0887                 1.0950
 Frc consts  --      7.2792                 7.2603                 7.3414
 IR Inten    --     30.8141                 1.1345                51.1238
 Raman Activ --     90.8100                78.1447                13.9403

                    124                    125                    126
                      A                      A                      A
 Frequencies --   3376.2149              3382.4283              3390.3190
 Red. masses --      1.0936                 1.0987                 1.0980
 Frc consts  --      7.3445                 7.4058                 7.4356
 IR Inten    --     28.1887                23.5698                25.5825
 Raman Activ --     83.2379               291.4875               207.7907

                    127                    128                    129
                      A                      A                      A
 Frequencies --   3414.3904              3548.3323              3762.4355
 Red. masses --      1.0945                 1.0674                 1.0818
 Frc consts  --      7.5177                 7.9185                 9.0227
 IR Inten    --      1.8610               203.5615                73.2029
 Raman Activ --     88.5354                38.0741                53.6827

                    130                    131                    132
                      A                      A                      A
 Frequencies --   3863.1957              3870.4140              4145.2392
 Red. masses --      1.0775                 1.0596                 1.0707
 Frc consts  --      9.4743                 9.3518                10.8399
 IR Inten    --     32.3131               432.7060                83.9563
 Raman Activ --     39.9038                53.8994                30.7554

 - Thermochemistry -
 -------------------
 Temperature   298.150 Kelvin.  Pressure   1.00000 Atm.
 Atom     1 has atomic number  8 and mass  15.99491

 Molecular mass:   330.15796 amu.
 Principal axes and moments of inertia in atomic units:
                           1         2         3
     Eigenvalues --  4165.18685********************
           X            0.99999  -0.00337  -0.00023
           Y            0.00337   0.99999   0.00390
           Z            0.00022  -0.00390   0.99999
 This molecule is an asymmetric top.
 Rotational symmetry number  1.
 Warning -- assumption of classical behavior for rotation
           may cause significant error
 Rotational temperatures (Kelvin)      0.02079     0.00592     0.00515
 Rotational constants (GHZ):           0.43329     0.12337     0.10737
 Zero-point vibrational energy    1080332.1 (Joules/Mol)
                                  258.20557 (Kcal/Mol)
 Warning -- explicit consideration of  33 degrees of freedom as
           vibrations may cause significant error
 Vibrational temperatures:     27.57    30.10    44.37    51.87    55.82
          (Kelvin)             66.53    80.50    94.91   122.85   150.65
                              199.27   244.87   278.04   280.30   321.36
                              338.25   363.47   391.84   406.46   434.19
                              466.81   528.40   549.78   598.11   610.22
                              658.54   659.10   676.20   687.25   743.34
                              764.00   782.98   863.47   897.62   948.99
                              979.37   980.80   990.11  1038.19  1084.63
                             1116.65  1127.72  1129.09  1188.63  1210.70
                             1230.00  1233.35  1275.07  1304.25  1344.68
                             1378.31  1384.70  1390.00  1433.50  1492.60
                             1504.72  1515.14  1532.84  1568.18  1568.45
                             1585.59  1598.55  1607.59  1613.94  1626.46
                             1628.90  1635.08  1644.80  1702.31  1707.33
                             1713.19  1740.72  1755.17  1770.28  1843.24
                             1872.46  1879.65  1881.04  1888.22  1902.73
                             1910.23  1945.26  1964.16  1988.49  2011.77
                             2128.08  2133.95  2136.40  2163.69  2181.38
                             2195.10  2199.70  2245.42  2331.22  2333.32
                             2353.41  2363.46  2404.96  2405.37  2458.03
                             2535.70  2561.86  2566.41  2566.96  2604.13
                             2607.18  2649.77  2684.21  2797.81  2845.24
                             4249.69  4650.86  4655.51  4704.77  4713.68
                             4730.50  4783.26  4806.38  4808.32  4819.59
                             4837.82  4840.42  4853.34  4857.61  4866.55
                             4877.91  4912.54  5105.25  5413.30  5558.27
                             5568.66  5964.07

 Zero-point correction=                           0.411477 (Hartree/Particle)
 Thermal correction to Energy=                    0.433622
 Thermal correction to Enthalpy=                  0.434567
 Thermal correction to Gibbs Free Energy=         0.355977
 Sum of electronic and zero-point Energies=          -1102.379251
 Sum of electronic and thermal Energies=             -1102.357105
 Sum of electronic and thermal Enthalpies=           -1102.356161
 Sum of electronic and thermal Free Energies=        -1102.434750

                     E (Thermal)             CV                S
                      KCal/Mol        Cal/Mol-Kelvin    Cal/Mol-Kelvin
 Total                  272.102             82.287            165.405
 Electronic               0.000              0.000              0.000
 Translational            0.889              2.981             43.278
 Rotational               0.889              2.981             35.281
 Vibrational            270.325             76.325             86.845
 Vibration     1          0.593              1.986              6.719
 Vibration     2          0.593              1.986              6.545
 Vibration     3          0.594              1.984              5.775
 Vibration     4          0.594              1.982              5.465
 Vibration     5          0.594              1.981              5.319
 Vibration     6          0.595              1.979              4.972
 Vibration     7          0.596              1.975              4.595
 Vibration     8          0.597              1.971              4.270
 Vibration     9          0.601              1.959              3.763
 Vibration    10          0.605              1.945              3.365
 Vibration    11          0.614              1.915              2.825
 Vibration    12          0.625              1.879              2.433
 Vibration    13          0.635              1.849              2.196
 Vibration    14          0.635              1.847              2.181
 Vibration    15          0.649              1.806              1.932
 Vibration    16          0.655              1.787              1.840
 Vibration    17          0.664              1.758              1.712
 Vibration    18          0.675              1.724              1.581
 Vibration    19          0.682              1.706              1.518
 Vibration    20          0.694              1.670              1.407
 Vibration    21          0.709              1.627              1.288
 Vibration    22          0.740              1.540              1.091
 Vibration    23          0.752              1.508              1.031
 Vibration    24          0.779              1.436              0.907
 Vibration    25          0.786              1.418              0.878
 Vibration    26          0.816              1.344              0.773
 Vibration    27          0.816              1.343              0.772
 Vibration    28          0.827              1.317              0.738
 Vibration    29          0.834              1.300              0.716
 Vibration    30          0.872              1.213              0.618
 Vibration    31          0.886              1.181              0.585
 Vibration    32          0.899              1.152              0.556
 Vibration    33          0.958              1.031              0.449

 Optimization completed.
    -- Stationary point found.

 1\1\GINC-TC-NODE166\Freq\RHF\6-31G(d)\C18H22N2O4\MAXB2\23-Sep-2016\0\\
 #N Geom=AllCheck Guess=TCheck SCRF=Check GenChk RHF/6-31G(d) Freq\\Tit
 le Card Required\\0,1\O,0.9599037297,-2.109329409,-0.8668193152\O,-0.1
 898847159,-0.210586704,1.8038221012\O,1.8459681217,-0.2058570629,2.676
 2256605\N,-1.6604608676,-0.5859158012,-0.3176670517\N,-0.0498429131,-2
 .7557250901,1.0573994535\C,-1.4107841067,-1.9791191753,-0.7965010047\C
 ,-1.5392185272,-2.1307395256,-2.3277762334\C,-1.2805756856,-0.88747519
 28,-3.159872365\C,0.0112045155,-0.4507691437,-3.4417522472\C,0.2142173

 Normal termination of Gaussian 09 at Fri Sep 23 16:31:15 2016.
