 Gaussian 09, Revision D.01,
 Gaussian 09:  ES64L-G09RevD.01 24-Apr-2013

 ----------------------------------------------------------------------
 # opt=modredundant UHF/6-31G* gfp scf=(QC,maxcycles=500) geom=connecti
 vity
 ----------------------------------------------------------------------

 --------------------------------------
 IM_Q2_scan-FEF, lengthen, 5 steps only
 --------------------------------------
 Symbolic Z-matrix:
 Charge =  1 Multiplicity = 4

 SCF Done:  E(UHF) =  -2543.89907010     a.u. after   70 cycles
 SCF Done:  E(UHF) =  -2543.90217095     a.u. after   27 cycles
 SCF Done:  E(UHF) =  -2543.90275185     a.u. after   16 cycles
 SCF Done:  E(UHF) =  -2543.90283077     a.u. after   13 cycles
 SCF Done:  E(UHF) =  -2543.90286404     a.u. after   15 cycles
 SCF Done:  E(UHF) =  -2543.90288667     a.u. after   11 cycles
 SCF Done:  E(UHF) =  -2543.90290586     a.u. after   14 cycles
 SCF Done:  E(UHF) =  -2543.90292258     a.u. after   14 cycles
 SCF Done:  E(UHF) =  -2543.90294138     a.u. after   17 cycles
 SCF Done:  E(UHF) =  -2543.90295579     a.u. after   14 cycles
 Optimization completed.
    -- Stationary point found.
 SCF Done:  E(UHF) =  -2543.90286976     a.u. after    4 cycles
 Optimization completed.
 SCF Done:  E(UHF) =  -2543.90248356     a.u. after    7 cycles
 SCF Done:  E(UHF) =  -2543.90248571     a.u. after    9 cycles
 SCF Done:  E(UHF) =  -2543.90184724     a.u. after    7 cycles
 SCF Done:  E(UHF) =  -2543.90184963     a.u. after    8 cycles
 SCF Done:  E(UHF) =  -2543.90098450     a.u. after    9 cycles
 SCF Done:  E(UHF) =  -2543.90098694     a.u. after    7 cycles
 SCF Done:  E(UHF) =  -2543.90098698     a.u. after    4 cycles
    -- Stationary point found.
 SCF Done:  E(UHF) =  -2543.89991887     a.u. after    7 cycles
 SCF Done:  E(UHF) =  -2543.89992146     a.u. after    8 cycles
 Optimization completed.
    -- Stationary point found.

                         Standard orientation:
 ---------------------------------------------------------------------
 Center     Atomic      Atomic             Coordinates (Angstroms)
 Number     Number       Type             X           Y           Z
 ---------------------------------------------------------------------
      1          6           0       -0.565915   -3.325829   -0.491378
      2          6           0       -3.349161    0.669366   -0.571068
      3          6           0        0.629905    3.360813   -0.321694
      4          6           0        3.397002   -0.597590   -0.463195
      5          6           0        2.550545   -1.726141   -0.451054
      6          6           0        2.998586   -3.093034   -0.506028
      7          6           0        1.891547   -3.857360   -0.504610
      8          6           0        0.753870   -2.945848   -0.453079
      9          7           0        1.199326   -1.667513   -0.405575
     10          6           0       -1.712052   -2.474471   -0.515622
     11          6           0       -3.030424   -2.922703   -0.593611
     12          6           0       -3.823605   -1.788873   -0.627276
     13          6           0       -2.952446   -0.702828   -0.566518
     14          7           0       -1.664342   -1.120620   -0.487451
     15          6           0       -2.522877    1.760133   -0.481152
     16          6           0       -2.950314    3.153223   -0.500464
     17          6           0       -1.833380    3.899218   -0.418432
     18          6           0       -0.728819    2.977423   -0.356753
     19          7           0       -1.171076    1.700512   -0.379810
     20          6           0        1.744648    2.514473   -0.347178
     21          6           0        3.126927    2.975623   -0.414433
     22          6           0        3.891520    1.885758   -0.468491
     23          6           0        2.990370    0.741907   -0.427674
     24          7           0        1.707676    1.163364   -0.340829
     25          1           0       -0.763793   -4.381196   -0.532785
     26          1           0       -4.403383    0.859429   -0.656812
     27          1           0        0.829824    4.416126   -0.320398
     28          1           0        4.453202   -0.782745   -0.524047
     29          1           0        4.022278   -3.404772   -0.549851
     30          1           0        1.819059   -4.925240   -0.547298
     31          1           0       -3.345274   -3.945979   -0.634616
     32          1           0       -4.891405   -1.735709   -0.698441
     33          1           0       -3.967087    3.481692   -0.576599
     34          1           0       -1.745724    4.966632   -0.414419
     35          1           0        3.426896    4.003701   -0.431270
     36          1           0        4.958301    1.820503   -0.538696
     37         26           0       -0.007422   -0.002530   -0.431031
     38          8           0        0.106261    0.107347   -2.302696
     39          6           0       -1.095661   -0.408487    2.405690
     40          6           0        0.948902    0.210123    2.584572
     41          6           0        0.500065    0.024551    3.837462
     42          7           0       -0.808832   -0.369494    3.703913
     43          1           0       -1.437134   -0.596636    4.442303
     44          1           0       -2.050350   -0.695250    2.024230
     45          1           0        1.919218    0.517636    2.267753
     46          1           0        0.973426    0.130902    4.788498
     47          7           0       -0.064261   -0.063215    1.687287
 ---------------------------------------------------------------------

 The electronic state is 4-A.
 Alpha  occ. eigenvalues -- -261.61584 -32.22604 -27.71355 -27.70859 -27.69536
 Alpha  occ. eigenvalues --  -20.62456 -15.75722 -15.73512 -15.71657 -15.71636
 Alpha  occ. eigenvalues --  -15.70783 -15.67426 -11.43693 -11.41140 -11.41113
 Alpha  occ. eigenvalues --  -11.39606 -11.39561 -11.39098 -11.39022 -11.38676
 Alpha  occ. eigenvalues --  -11.38661 -11.38550 -11.38223 -11.37982 -11.37560
 Alpha  occ. eigenvalues --  -11.36635 -11.36464 -11.35625 -11.35562 -11.35091
 Alpha  occ. eigenvalues --  -11.35048 -11.34761 -11.34717 -11.31396 -11.31268
 Alpha  occ. eigenvalues --   -4.42385  -3.02023  -3.00513  -2.97874  -1.49394
 Alpha  occ. eigenvalues --   -1.44140  -1.42020  -1.41931  -1.38399  -1.32704
 Alpha  occ. eigenvalues --   -1.31481  -1.23432  -1.20202  -1.19625  -1.19255
 Alpha  occ. eigenvalues --   -1.17427  -1.17292  -1.15346  -1.14753  -1.13642
 Alpha  occ. eigenvalues --   -1.08336  -1.01976  -1.00866  -0.97200  -0.94417
 Alpha  occ. eigenvalues --   -0.93415  -0.92138  -0.90825  -0.90201  -0.90056
 Alpha  occ. eigenvalues --   -0.89937  -0.87302  -0.86665  -0.85770  -0.84368
 Alpha  occ. eigenvalues --   -0.84240  -0.82461  -0.81223  -0.80700  -0.80457
 Alpha  occ. eigenvalues --   -0.78951  -0.75912  -0.75209  -0.74136  -0.73767
 Alpha  occ. eigenvalues --   -0.73325  -0.72697  -0.72228  -0.71456  -0.71378
 Alpha  occ. eigenvalues --   -0.70423  -0.70060  -0.69511  -0.69001  -0.68730
 Alpha  occ. eigenvalues --   -0.68235  -0.68142  -0.66671  -0.66258  -0.65703
 Alpha  occ. eigenvalues --   -0.64554  -0.64258  -0.63538  -0.63243  -0.62147
 Alpha  occ. eigenvalues --   -0.61099  -0.60285  -0.58771  -0.58242  -0.57096
 Alpha  occ. eigenvalues --   -0.54637  -0.54048  -0.53159  -0.52472  -0.50414
 Alpha  occ. eigenvalues --   -0.49467  -0.48925  -0.45843  -0.45435  -0.44683
 Alpha  occ. eigenvalues --   -0.33493
 Alpha virt. eigenvalues --   -0.08409  -0.06451  -0.00228   0.05759   0.06516
 Alpha virt. eigenvalues --    0.06966   0.09091   0.09167   0.09512   0.10504
 Alpha virt. eigenvalues --    0.11320   0.12015   0.12764   0.13097   0.13171

  Beta  occ. eigenvalues -- -261.61534 -32.19353 -27.67701 -27.67411 -27.67078
  Beta  occ. eigenvalues --  -20.58271 -15.75724 -15.71724 -15.70865 -15.70031
  Beta  occ. eigenvalues --  -15.70022 -15.67081 -11.43672 -11.42476 -11.42449
  Beta  occ. eigenvalues --  -11.41015 -11.40922 -11.39331 -11.39203 -11.38694
  Beta  occ. eigenvalues --  -11.37531 -11.37426 -11.37350 -11.37148 -11.36849
  Beta  occ. eigenvalues --  -11.36682 -11.36475 -11.35858 -11.35832 -11.35796
  Beta  occ. eigenvalues --  -11.35723 -11.34071 -11.34012 -11.31282 -11.31069
  Beta  occ. eigenvalues --   -4.33420  -2.91030  -2.89475  -2.87486  -1.49410
  Beta  occ. eigenvalues --   -1.43020  -1.40743  -1.40661  -1.37675  -1.31575
  Beta  occ. eigenvalues --   -1.22546  -1.19181  -1.18265  -1.18066  -1.16739
  Beta  occ. eigenvalues --   -1.16392  -1.15337  -1.15059  -1.12900  -1.10625
  Beta  occ. eigenvalues --   -1.10404  -1.01283  -1.01030  -0.97239  -0.94380
  Beta  occ. eigenvalues --   -0.93585  -0.91092  -0.90875  -0.90372  -0.90161
  Beta  occ. eigenvalues --   -0.89758  -0.86949  -0.86815  -0.83990  -0.83758
  Beta  occ. eigenvalues --   -0.81846  -0.80272  -0.79858  -0.78191  -0.76284
  Beta  occ. eigenvalues --   -0.74940  -0.74308  -0.74117  -0.73578  -0.72660
  Beta  occ. eigenvalues --   -0.72306  -0.72119  -0.71202  -0.70687  -0.69898
  Beta  occ. eigenvalues --   -0.68953  -0.68841  -0.68392  -0.67966  -0.67799
  Beta  occ. eigenvalues --   -0.67507  -0.66372  -0.65680  -0.64832  -0.64320
  Beta  occ. eigenvalues --   -0.63634  -0.63217  -0.61912  -0.60188  -0.59739
  Beta  occ. eigenvalues --   -0.58488  -0.54860  -0.54594  -0.51861  -0.49867
  Beta  occ. eigenvalues --   -0.48974  -0.47878  -0.46364  -0.45672  -0.45111
  Beta  occ. eigenvalues --   -0.44923  -0.41917  -0.39109
  Beta virt. eigenvalues --   -0.11047  -0.04513  -0.04162   0.03069   0.05060
  Beta virt. eigenvalues --    0.05976   0.07486   0.08269   0.08997   0.09540
  Beta virt. eigenvalues --    0.09827   0.10540   0.11082   0.11683   0.12055

 Mulliken charges and spin densities:
               1          2
     1  C   -0.211199   0.644622
     2  C   -0.211044   0.620197
     3  C   -0.242208   0.925190
     4  C   -0.246250   0.924855
     5  C    0.346946  -0.719306
     6  C   -0.231301   0.388349
     7  C   -0.184440  -0.424970
     8  C    0.330185  -0.345494
     9  N   -0.866992   0.518601
    10  C    0.307922  -0.146937
    11  C   -0.251465   0.114055
    12  C   -0.251883   0.037268
    13  C    0.281077  -0.085410
    14  N   -0.956320   0.104594
    15  C    0.311355  -0.325129
    16  C   -0.182319  -0.431092
    17  C   -0.234784   0.394478
    18  C    0.357550  -0.712412
    19  N   -0.862663   0.516074
    20  C    0.360737  -0.678269
    21  C   -0.204164  -0.037997
    22  C   -0.205344   0.014132
    23  C    0.340951  -0.685825
    24  N   -0.855377   0.568859
    25  H    0.260903  -0.038610
    26  H    0.262855  -0.037005
    27  H    0.263246  -0.054204
    28  H    0.264951  -0.053896
    29  H    0.251310  -0.019623
    30  H    0.257963   0.026955
    31  H    0.229530  -0.008393
    32  H    0.229578  -0.003687
    33  H    0.257304   0.026685
    34  H    0.250580  -0.019750
    35  H    0.263644   0.006099
    36  H    0.263329   0.003273
    37  Fe   2.007450   0.924920
    38  O   -0.606263   1.077417
    39  C    0.357526   0.014016
    40  C   -0.007363   0.011508
    41  C   -0.002169  -0.009339
    42  N   -0.708148   0.000127
    43  H    0.433517  -0.000225
    44  H    0.277806  -0.001666
    45  H    0.232089  -0.000695
    46  H    0.266148   0.000567
    47  N   -0.744756  -0.022903
 Sum of Mulliken charges =   1.00000   3.00000

 Dipole moment (field-independent basis, Debye):
    X=              1.8435    Y=              1.4957    Z=              8.5436  Tot=              8.8672
 Quadrupole moment (field-independent basis, Debye-Ang):
   XX=           -118.0831   YY=           -123.5186   ZZ=           -167.5406
   XY=             -1.3367   XZ=             -6.8142   YZ=             -2.9442

 Normal termination of Gaussian 09 at Mon Sep 26 15:38:56 2016.
