 Gaussian 09, Revision D.01,
 Gaussian 09:  ES64L-G09RevD.01 24-Apr-2013

 --------------------------
 # opt freq b3lyp/6-311+g**
 --------------------------

 -----
 title
 -----
 Symbolic Z-matrix:
 Charge =  0 Multiplicity = 1

 SCF Done:  E(RB3LYP) =  -464.621479278     A.U. after   12 cycles
 SCF Done:  E(RB3LYP) =  -464.621673521     A.U. after   10 cycles
 SCF Done:  E(RB3LYP) =  -464.621831433     A.U. after   10 cycles
 SCF Done:  E(RB3LYP) =  -464.622256320     A.U. after   10 cycles
 SCF Done:  E(RB3LYP) =  -464.622756138     A.U. after   10 cycles
 SCF Done:  E(RB3LYP) =  -464.622994173     A.U. after    9 cycles
 SCF Done:  E(RB3LYP) =  -464.623072737     A.U. after   10 cycles
 SCF Done:  E(RB3LYP) =  -464.623075870     A.U. after    8 cycles
 SCF Done:  E(RB3LYP) =  -464.623076411     A.U. after    8 cycles
 SCF Done:  E(RB3LYP) =  -464.623076534     A.U. after    7 cycles
 SCF Done:  E(RB3LYP) =  -464.623076590     A.U. after    7 cycles
 SCF Done:  E(RB3LYP) =  -464.623076611     A.U. after    6 cycles
 Optimization completed.
    -- Stationary point found.
 Normal termination of Gaussian 09 at Mon Oct 10 14:27:22 2016.

 ----------------------------------------------------------------------
 #N Geom=AllCheck Guess=TCheck SCRF=Check GenChk RB3LYP/6-311+G(d,p) Fr
 eq
 ----------------------------------------------------------------------

 Structure from the checkpoint file:  "benzene-b3lyp.chk"
 -----
 title
 -----
 Charge =  0 Multiplicity = 1

                         Standard orientation:
 ---------------------------------------------------------------------
 Center     Atomic      Atomic             Coordinates (Angstroms)
 Number     Number       Type             X           Y           Z
 ---------------------------------------------------------------------
      1          6           0        0.000000    0.000000    1.395089
      2          6           0        0.000000    1.206990    2.094187
      3          6           0        0.000000    1.207580    3.488943
      4          6           0        0.000000    0.000000    4.186797
      5          6           0        0.000000   -1.207580    3.488943
      6          6           0        0.000000   -1.206990    2.094187
      7          1           0        0.000000    0.000000    0.310937
      8          1           0        0.000000    2.145848    1.551463
      9          1           0        0.000000    2.146860    4.031154
     10          1           0        0.000000    0.000000    5.271290
     11          1           0        0.000000   -2.146860    4.031154
     12          1           0        0.000000   -2.145848    1.551463
     13          6           0        1.394984    0.000000   -2.791010
     14          6           0        0.697457   -1.207847   -2.791575
     15          6           0       -0.697457   -1.207847   -2.791575
     16          6           0       -1.394984    0.000000   -2.791010
     17          6           0       -0.697457    1.207847   -2.791575
     18          6           0        0.697457    1.207847   -2.791575
     19          1           0        2.479292    0.000000   -2.789253
     20          1           0        1.239825   -2.146876   -2.791979
     21          1           0       -1.239825   -2.146876   -2.791979
     22          1           0       -2.479292    0.000000   -2.789253
     23          1           0       -1.239825    2.146876   -2.791979
     24          1           0        1.239825    2.146876   -2.791979
 ---------------------------------------------------------------------

 SCF Done:  E(RB3LYP) =  -464.623076611     A.U. after    1 cycles

 The electronic state is 1-A1.
 Alpha  occ. eigenvalues --  -10.18225 -10.18204 -10.18195 -10.18148 -10.18139
 Alpha  occ. eigenvalues --  -10.18116 -10.17463 -10.17428 -10.17390 -10.17332
 Alpha  occ. eigenvalues --  -10.17325 -10.17165  -0.86307  -0.85474  -0.75460
 Alpha  occ. eigenvalues --   -0.75452  -0.74660  -0.74620  -0.61117  -0.61110
 Alpha  occ. eigenvalues --   -0.60326  -0.60293  -0.53254  -0.52454  -0.46918
 Alpha  occ. eigenvalues --   -0.46134  -0.45618  -0.44808  -0.43082  -0.43070
 Alpha  occ. eigenvalues --   -0.42308  -0.42269  -0.37650  -0.36809  -0.35371
 Alpha  occ. eigenvalues --   -0.35364  -0.34582  -0.34493  -0.26365  -0.26359
 Alpha  occ. eigenvalues --   -0.25539  -0.25455
 Alpha virt. eigenvalues --   -0.02141  -0.02083  -0.01250  -0.01236  -0.00242
 Alpha virt. eigenvalues --    0.01185   0.01562   0.02166   0.03129   0.03377
 Alpha virt. eigenvalues --    0.04348   0.04418   0.05655   0.05753   0.06064

 Mulliken charges:
               1
     1  C    0.284521
     2  C   -0.311545
     3  C   -0.127668
     4  C   -0.158807
     5  C   -0.127668
     6  C   -0.311545
     7  H    0.168355
     8  H    0.123763
     9  H    0.124685
    10  H    0.124161
    11  H    0.124685
    12  H    0.123763
    13  C   -0.138848
    14  C   -0.128220
    15  C   -0.128220
    16  C   -0.138848
    17  C   -0.128220
    18  C   -0.128220
    19  H    0.126582
    20  H    0.125178
    21  H    0.125178
    22  H    0.126582
    23  H    0.125178
    24  H    0.125178
 Sum of Mulliken charges =   0.00000

 Dipole moment (field-independent basis, Debye):
    X=              0.0000    Y=              0.0000    Z=             -0.3221  Tot=              0.3221
 Quadrupole moment (field-independent basis, Debye-Ang):
   XX=            -72.3127   YY=            -64.5207   ZZ=            -72.9916
   XY=              0.0000   XZ=              0.0000   YZ=              0.0000

  Exact polarizability: 116.181   0.000 150.280   0.000   0.000 131.689
 Approx polarizability: 189.363   0.000 257.271   0.000   0.000 189.961

                      1                      2                      3
                     B2                     A2                     B1
 Frequencies --     10.8494                12.1394                18.0900
 Red. masses --      3.8008                 3.6425                 3.7771
 Frc consts  --      0.0003                 0.0003                 0.0007
 IR Inten    --      0.0010                 0.0000                 0.0152

                      4                      5                      6
                     A1                     B2                     B1
 Frequencies --     19.0283                21.8641                23.5874
 Red. masses --      6.4897                 3.7877                 3.7592
 Frc consts  --      0.0014                 0.0011                 0.0012
 IR Inten    --      0.0424                 0.0291                 0.0582

                      7                      8                      9
                     A2                     A1                     A2
 Frequencies --    410.3142               410.7159               410.8557
 Red. masses --      2.8470                 2.8545                 2.8496
 Frc consts  --      0.2824                 0.2837                 0.2834
 IR Inten    --      0.0000                 0.0009                 0.0000

                     10                     11                     12
                     B1                     A1                     A1
 Frequencies --    412.7359               621.7192               622.0352
 Red. masses --      2.8665                 6.0860                 6.0873
 Frc consts  --      0.2877                 1.3860                 1.3877
 IR Inten    --      0.0836                 0.1661                 0.0084

                     13                     14                     15
                     A2                     B2                     A1
 Frequencies --    622.2998               622.8158               688.5922
 Red. masses --      6.0922                 6.1019                 1.0852
 Frc consts  --      1.3900                 1.3946                 0.3032
 IR Inten    --      0.0000                 0.0045               138.5985

                     16                     17                     18
                     B1                     B1                     B1
 Frequencies --    688.9899               715.0897               720.4902
 Red. masses --      1.0850                 3.6323                 3.5452
 Frc consts  --      0.3035                 1.0943                 1.0843
 IR Inten    --    104.4502                 0.0046                 0.0199

                     19                     20                     21
                     A2                     B2                     B1
 Frequencies --    861.5975               863.2341               863.5672
 Red. masses --      1.2484                 1.2487                 1.2475
 Frc consts  --      0.5460                 0.5482                 0.5481
 IR Inten    --      0.0000                 0.2648                 0.0282

                     22                     23                     24
                     B1                     A2                     A1
 Frequencies --    869.1859               985.9134               988.7464
 Red. masses --      1.2455                 1.3803                 1.3789
 Frc consts  --      0.5544                 0.7905                 0.7943
 IR Inten    --      0.4953                 0.0000                 0.0001

                     25                     26                     27
                     A2                     B1                     A1
 Frequencies --    988.7720               991.8488              1010.1547
 Red. masses --      1.3803                 1.3678                 6.0261
 Frc consts  --      0.7951                 0.7928                 3.6230
 IR Inten    --      0.0000                 0.0864                 0.4427

                     28                     29                     30
                     A1                     B1                     B1
 Frequencies --   1010.5228              1015.0521              1020.4615
 Red. masses --      6.0266                 1.2499                 1.2694
 Frc consts  --      3.6259                 0.7588                 0.7788
 IR Inten    --      0.0002                 0.0002                 0.0745

                     31                     32                     33
                     A1                     B1                     B2
 Frequencies --   1023.0343              1023.1592              1058.2186
 Red. masses --      6.5279                 6.4350                 1.7115
 Frc consts  --      4.0254                 3.9690                 1.1292
 IR Inten    --      0.1127                 0.0003                 0.7285

                     34                     35                     36
                     A1                     B2                     B1
 Frequencies --   1058.7961              1058.8989              1059.0142
 Red. masses --      1.7073                 1.7130                 1.7096
 Frc consts  --      1.1277                 1.1316                 1.1296
 IR Inten    --      6.2360                 9.7346                 5.4143

                     37                     38                     39
                     B2                     B2                     A1
 Frequencies --   1174.6013              1174.9647              1196.3795
 Red. masses --      1.1000                 1.0999                 1.1371
 Frc consts  --      0.8942                 0.8946                 0.9589
 IR Inten    --      0.2759                 0.0024                 0.1338

                     40                     41                     42
                     A1                     A2                     B2
 Frequencies --   1197.3200              1197.5541              1198.1614
 Red. masses --      1.1380                 1.1377                 1.1385
 Frc consts  --      0.9612                 0.9613                 0.9630
 IR Inten    --      0.0000                 0.0000                 0.6794

                     43                     44                     45
                     B2                     B2                     A2
 Frequencies --   1335.3768              1335.5403              1381.0964
 Red. masses --      6.0099                 6.0051                 1.2474
 Frc consts  --      6.3143                 6.3108                 1.4019
 IR Inten    --      0.0032                 0.0438                 0.0000

                     46                     47                     48
                     B2                     B2                     A1
 Frequencies --   1381.3245              1509.5196              1509.7729
 Red. masses --      1.2476                 2.0012                 2.0066
 Frc consts  --      1.4025                 2.6867                 2.6948
 IR Inten    --      0.0135                11.7870                 9.0608

                     49                     50                     51
                     B1                     B2                     A1
 Frequencies --   1510.1686              1510.7123              1632.3867
 Red. masses --      2.0029                 1.9980                 5.2973
 Frc consts  --      2.6913                 2.6867                 8.3167
 IR Inten    --      7.6193                 0.6100                 0.0050

                     52                     53                     54
                     A2                     B2                     A1
 Frequencies --   1632.6655              1632.7885              1632.8002
 Red. masses --      5.3006                 5.2858                 5.3177
 Frc consts  --      8.3247                 8.3027                 8.3529
 IR Inten    --      0.0000                 0.2253                 0.2518

                     55                     56                     57
                     A1                     B1                     B2
 Frequencies --   3156.1602              3157.6076              3164.7052
 Red. masses --      1.0842                 1.0841                 1.0875
 Frc consts  --      6.3631                 6.3687                 6.4174
 IR Inten    --      0.9514                 0.0365                 0.4250

                     58                     59                     60
                     A2                     A1                     A1
 Frequencies --   3166.7055              3167.5929              3168.2493
 Red. masses --      1.0877                 1.0877                 1.0880
 Frc consts  --      6.4264                 6.4301                 6.4345
 IR Inten    --      0.0000                 0.0429                 5.7468

                     61                     62                     63
                     B2                     B2                     B1
 Frequencies --   3180.5402              3182.0991              3183.0178
 Red. masses --      1.0948                 1.0949                 1.0949
 Frc consts  --      6.5251                 6.5321                 6.5362
 IR Inten    --     29.1330                38.1028                31.7749

                     64                     65                     66
                     A1                     A1                     A1
 Frequencies --   3183.2753              3192.2040              3192.8431
 Red. masses --      1.0950                 1.0992                 1.0991
 Frc consts  --      6.5376                 6.5993                 6.6017
 IR Inten    --     24.5377                 0.0747                 0.1028

 - Thermochemistry -
 -------------------
 Temperature   298.150 Kelvin.  Pressure   1.00000 Atm.
 Atom     1 has atomic number  6 and mass  12.00000

 Molecular mass:   156.09390 amu.
 Principal axes and moments of inertia in atomic units:
                           1         2         3
     Eigenvalues --   949.119304976.538975292.58201
           X            0.00000   0.00000   1.00000
           Y            0.00000   1.00000   0.00000
           Z            1.00000   0.00000   0.00000
 This molecule is an asymmetric top.
 Rotational symmetry number  2.
 Warning -- assumption of classical behavior for rotation
           may cause significant error
 Rotational temperatures (Kelvin)      0.09126     0.01740     0.01637
 Rotational constants (GHZ):           1.90149     0.36265     0.34099
 Zero-point vibrational energy     526599.3 (Joules/Mol)
                                  125.86025 (Kcal/Mol)
 Warning -- explicit consideration of  10 degrees of freedom as
           vibrations may cause significant error
 Vibrational temperatures:     15.61    17.47    26.03    27.38    31.46
          (Kelvin)             33.94   590.35   590.93   591.13   593.83
                              894.51   894.97   895.35   896.09   990.73
                              991.30  1028.85  1036.62  1239.65  1242.00
                             1242.48  1250.56  1418.51  1422.58  1422.62
                             1427.05  1453.39  1453.92  1460.43  1468.21
                             1471.92  1472.10  1522.54  1523.37  1523.52
                             1523.68  1689.99  1690.51  1721.32  1722.67
                             1723.01  1723.88  1921.31  1921.54  1987.09
                             1987.42  2171.86  2172.22  2172.79  2173.58
                             2348.64  2349.04  2349.22  2349.23  4541.00
                             4543.09  4553.30  4556.18  4557.45  4558.40
                             4576.08  4578.33  4579.65  4580.02  4592.86
                             4593.78

 Zero-point correction=                           0.200571 (Hartree/Particle)
 Thermal correction to Energy=                    0.211960
 Thermal correction to Enthalpy=                  0.212905
 Thermal correction to Gibbs Free Energy=         0.154991
 Sum of electronic and zero-point Energies=           -464.422506
 Sum of electronic and thermal Energies=              -464.411116
 Sum of electronic and thermal Enthalpies=            -464.410172
 Sum of electronic and thermal Free Energies=         -464.468085

                     E (Thermal)             CV                S
                      KCal/Mol        Cal/Mol-Kelvin    Cal/Mol-Kelvin
 Total                  133.007             40.314            121.889
 Electronic               0.000              0.000              0.000
 Translational            0.889              2.981             41.045
 Rotational               0.889              2.981             30.214
 Vibrational            131.230             34.352             50.629
 Vibration     1          0.593              1.987              7.849
 Vibration     2          0.593              1.987              7.626
 Vibration     3          0.593              1.986              6.834
 Vibration     4          0.593              1.986              6.733
 Vibration     5          0.593              1.985              6.457
 Vibration     6          0.593              1.985              6.307
 Vibration     7          0.774              1.448              0.926
 Vibration     8          0.775              1.447              0.924
 Vibration     9          0.775              1.447              0.924
 Vibration    10          0.777              1.443              0.917

 Optimization completed.
    -- Stationary point found.
 Normal termination of Gaussian 09 at Mon Oct 10 14:46:54 2016.
