 Gaussian 09, Revision D.01,
 Gaussian 09:  ES64L-G09RevD.01 24-Apr-2013

 -----------------------------------------------------------------
 # freq=(raman) integral=coarsegrid mp2(full)/6-311+g** geom=check
 -----------------------------------------------------------------

 -----
 title
 -----
 Structure from the checkpoint file:  "benzene-mp2freq.chk"
 Charge =  0 Multiplicity = 1

                         Standard orientation:
 ---------------------------------------------------------------------
 Center     Atomic      Atomic             Coordinates (Angstroms)
 Number     Number       Type             X           Y           Z
 ---------------------------------------------------------------------
      1          6           0        0.000000    0.000000    0.995300
      2          6           0        0.000000    1.210287    1.696489
      3          6           0        0.000000    1.211881    3.095699
      4          6           0        0.000000    0.000000    3.795325
      5          6           0        0.000000   -1.211881    3.095699
      6          6           0        0.000000   -1.210287    1.696489
      7          1           0        0.000000    0.000000   -0.087588
      8          1           0        0.000000    2.149803    1.150066
      9          1           0        0.000000    2.152602    3.639473
     10          1           0        0.000000    0.000000    4.881852
     11          1           0        0.000000   -2.152602    3.639473
     12          1           0        0.000000   -2.149803    1.150066
     13          6           0        1.399785    0.000000   -2.395744
     14          6           0        0.699843   -1.211885   -2.396279
     15          6           0       -0.699843   -1.211885   -2.396279
     16          6           0       -1.399785    0.000000   -2.395744
     17          6           0       -0.699843    1.211885   -2.396279
     18          6           0        0.699843    1.211885   -2.396279
     19          1           0        2.486157    0.000000   -2.389871
     20          1           0        1.243095   -2.152884   -2.395997
     21          1           0       -1.243095   -2.152884   -2.395997
     22          1           0       -2.486157    0.000000   -2.389871
     23          1           0       -1.243095    2.152884   -2.395997
     24          1           0        1.243095    2.152884   -2.395997
 ---------------------------------------------------------------------

 SCF Done:  E(RHF) =  -461.507164419     A.U. after   13 cycles
 E2 =    -0.1896369398D+01 EUMP2 =    -0.46340353381739D+03
 E2 =    -0.1896369398D+01 EUMP2 =    -0.46340353381738D+03
 SCF Done:  E(RHF) =  -461.507170714     A.U. after    8 cycles
 E2 =    -0.1896369444D+01 EUMP2 =    -0.46340354015775D+03
 E2 =    -0.1896369444D+01 EUMP2 =    -0.46340354015772D+03
 SCF Done:  E(RHF) =  -461.507172427     A.U. after    9 cycles
 E2 =    -0.1896369542D+01 EUMP2 =    -0.46340354196827D+03
 E2 =    -0.1896369542D+01 EUMP2 =    -0.46340354196824D+03
 SCF Done:  E(RHF) =  -461.507246153     A.U. after   10 cycles
 E2 =    -0.1896360981D+01 EUMP2 =    -0.46340360713426D+03
 E2 =    -0.1896360981D+01 EUMP2 =    -0.46340360713426D+03
 SCF Done:  E(RHF) =  -461.507097528     A.U. after   11 cycles
 E2 =    -0.1896378001D+01 EUMP2 =    -0.46340347552951D+03
 E2 =    -0.1896378001D+01 EUMP2 =    -0.46340347552951D+03

 Alpha  occ. eigenvalues --  -11.24720 -11.24671 -11.24657 -11.24551 -11.24535
 Alpha  occ. eigenvalues --  -11.24484 -11.23122 -11.23077 -11.22936 -11.22833
 Alpha  occ. eigenvalues --  -11.22822 -11.22390  -1.15709  -1.13899  -1.02172
 Alpha  occ. eigenvalues --   -1.02145  -1.00473  -1.00413  -0.83054  -0.83049
 Alpha  occ. eigenvalues --   -0.81412  -0.81391  -0.71548  -0.69926  -0.65072
 Alpha  occ. eigenvalues --   -0.63545  -0.62533  -0.60857  -0.59510  -0.59484
 Alpha  occ. eigenvalues --   -0.58165  -0.57881  -0.51009  -0.50210  -0.50188
 Alpha  occ. eigenvalues --   -0.49017  -0.48551  -0.47670  -0.34646  -0.34476
 Alpha  occ. eigenvalues --   -0.32705  -0.32271
 Alpha virt. eigenvalues --    0.06267   0.07078   0.07643   0.07685   0.09014
 Alpha virt. eigenvalues --    0.09067   0.09210   0.09848   0.09874   0.10168
 Alpha virt. eigenvalues --    0.11419   0.11740   0.12167   0.12511   0.12564

 Mulliken charges:
               1
     1  C    0.722505
     2  C   -0.329121
     3  C   -0.284620
     4  C   -0.165438
     5  C   -0.284620
     6  C   -0.329121
     7  H    0.114808
     8  H    0.127920
     9  H    0.131430
    10  H    0.131744
    11  H    0.131430
    12  H    0.127920
    13  C   -0.197940
    14  C   -0.126513
    15  C   -0.126513
    16  C   -0.197940
    17  C   -0.126513
    18  C   -0.126513
    19  H    0.136489
    20  H    0.133529
    21  H    0.133529
    22  H    0.136489
    23  H    0.133529
    24  H    0.133529
 Sum of Mulliken charges =   0.00000

 Dipole moment (field-independent basis, Debye):
    X=              0.0000    Y=              0.0000    Z=             -0.3873  Tot=              0.3873
 Quadrupole moment (field-independent basis, Debye-Ang):
   XX=            -73.1438   YY=            -65.4792   ZZ=            -74.0956
   XY=              0.0000   XZ=              0.0000   YZ=              0.0000

  Exact polarizability: 113.994   0.000 146.583   0.000   0.000 135.105
 Approx polarizability: 119.676   0.000 150.325   0.000   0.000 119.444

 ******    2 imaginary frequencies (negative Signs) ******

                      1                      2                      3
                     B2                     B1                     A2
 Frequencies --    -20.1591                -6.8707                 8.8508
 Red. masses --      3.7102                 3.6542                 3.6569
 Frc consts  --      0.0009                 0.0001                 0.0002
 IR Inten    --      0.0006                 0.0692                 0.0000
 Raman Activ --      1.6388                12.3874                 3.6151

                      4                      5                      6
                     A1                     B2                     B1
 Frequencies --     71.4771                90.1001                92.2964
 Red. masses --      6.4560                 3.9663                 3.9705
 Frc consts  --      0.0194                 0.0190                 0.0199
 IR Inten    --      0.0828                 0.1061                 0.2208
 Raman Activ --      0.2496                 4.7052                 0.3231

                      7                      8                      9
                     B1                     A2                     A1
 Frequencies --    136.2457               378.6295               381.1037
 Red. masses --     11.8967                 3.3167                 3.1436
 Frc consts  --      0.1301                 0.2801                 0.2690
 IR Inten    --      0.0002                 0.0000                 0.0002
 Raman Activ --      0.0187                 0.0159                 0.0042

                     10                     11                     12
                     B1                     A2                     B1
 Frequencies --    382.8222               388.6204               596.2479
 Red. masses --      3.3286                 3.0861                 6.8040
 Frc consts  --      0.2874                 0.2746                 1.4252
 IR Inten    --      0.2332                 0.0000                 0.0395
 Raman Activ --      0.0047                 0.0012                 0.0008

                     13                     14                     15
                     A1                     A2                     B2
 Frequencies --    609.2168               609.8348               610.5864
 Red. masses --      6.0076                 6.0108                 6.0166
 Frc consts  --      1.3137                 1.3171                 1.3216
 IR Inten    --      0.0006                 0.0000                 0.0072
 Raman Activ --      2.3564                 2.3744                 3.6778

                     16                     17                     18
                     A1                     B1                     A1
 Frequencies --    611.3718               675.3826               676.2509
 Red. masses --      5.9868                 1.0842                 1.0872
 Frc consts  --      1.3184                 0.2914                 0.2929
 IR Inten    --      0.1766                97.5936               142.0785
 Raman Activ --      5.0721                 0.0055                 0.0578

                     19                     20                     21
                     A2                     B1                     B2
 Frequencies --    837.9869               841.1424               848.7598
 Red. masses --      1.2471                 1.2418                 1.2507
 Frc consts  --      0.5160                 0.5177                 0.5308
 IR Inten    --      0.0000                 0.9575                 0.5775
 Raman Activ --      0.6946                 1.1227                 0.8598

                     22                     23                     24
                     B1                     B1                     A2
 Frequencies --    849.2809               889.0047               904.8463
 Red. masses --      1.2507                 1.0683                 1.2911
 Frc consts  --      0.5315                 0.4974                 0.6228
 IR Inten    --      0.4651                 0.0002                 0.0000
 Raman Activ --      0.6493                 0.0009                 0.0012

                     25                     26                     27
                     B1                     A1                     A2
 Frequencies --    929.6941               933.0003               947.4345
 Red. masses --      1.2038                 1.3203                 1.3310
 Frc consts  --      0.6131                 0.6772                 0.7039
 IR Inten    --      0.8030                 0.0063                 0.0000
 Raman Activ --      0.0868                 0.0911                 0.0328

                     28                     29                     30
                     B1                     A1                     A1
 Frequencies --    961.9987              1008.7768              1010.7034
 Red. masses --      1.0835                 6.3253                 6.1161
 Frc consts  --      0.5908                 3.7924                 3.6810
 IR Inten    --      0.0035                 0.7400                 0.1047
 Raman Activ --      0.0003                27.3620               101.9325

                     31                     32                     33
                     A1                     B1                     B2
 Frequencies --   1012.7830              1014.1628              1060.4414
 Red. masses --      6.0258                 6.2975                 1.6942
 Frc consts  --      3.6417                 3.8162                 1.1225
 IR Inten    --      0.4116                 0.0012                 1.7836
 Raman Activ --     31.4178                 0.0000                 0.0486

                     34                     35                     36
                     A1                     B1                     B2
 Frequencies --   1060.5882              1061.0958              1062.8374
 Red. masses --      1.6791                 1.6907                 1.6945
 Frc consts  --      1.1128                 1.1216                 1.1278
 IR Inten    --      4.8205                 4.1745                 6.4255
 Raman Activ --      0.0985                 0.0333                 0.0004

                     37                     38                     39
                     B2                     B2                     A1
 Frequencies --   1171.1174              1174.3908              1194.9643
 Red. masses --      1.0304                 1.0294                 1.1251
 Frc consts  --      0.8326                 0.8365                 0.9466
 IR Inten    --      0.9047                 0.0139                 0.3279
 Raman Activ --      0.2741                 0.0000                 7.7742

                     40                     41                     42
                     A1                     A2                     B2
 Frequencies --   1199.0379              1199.2591              1200.2346
 Red. masses --      1.1273                 1.1271                 1.1263
 Frc consts  --      0.9549                 0.9551                 0.9560
 IR Inten    --      0.0007                 0.0000                 1.9959
 Raman Activ --      4.6095                 4.9163                 3.3508

                     43                     44                     45
                     B2                     A2                     B2
 Frequencies --   1368.1776              1368.6134              1455.6635
 Red. masses --      1.2466                 1.2471                 9.5920
 Frc consts  --      1.3749                 1.3763                11.9752
 IR Inten    --      0.0319                 0.0000                 0.0578
 Raman Activ --      0.0090                 0.0000                 0.0631

                     46                     47                     48
                     B2                     B2                     A1
 Frequencies --   1458.1175              1504.2027              1504.6965
 Red. masses --      9.5990                 2.0204                 2.0457
 Frc consts  --     12.0243                 2.6934                 2.7289
 IR Inten    --      0.0040                11.0900                 9.7068
 Raman Activ --      0.0032                 0.0716                 0.2818

                     49                     50                     51
                     B1                     B2                     A1
 Frequencies --   1505.5711              1507.3931              1637.5660
 Red. masses --      2.0235                 2.0139                 5.5908
 Frc consts  --      2.7025                 2.6961                 8.8332
 IR Inten    --      7.9270                 0.0118                 0.0013
 Raman Activ --      0.3485                 0.4173                 8.6168

                     52                     53                     54
                     A2                     A1                     B2
 Frequencies --   1637.7592              1638.6419              1639.3705
 Red. masses --      5.5947                 5.6647                 5.6349
 Frc consts  --      8.8416                 8.9617                 8.9226
 IR Inten    --      0.0000                 0.5314                 0.3924
 Raman Activ --      9.4900                16.5874                11.1050

                     55                     56                     57
                     A1                     B1                     B2
 Frequencies --   3200.3741              3202.1177              3207.1958
 Red. masses --      1.0844                 1.0842                 1.0880
 Frc consts  --      6.5440                 6.5498                 6.5937
 IR Inten    --      2.6899                 0.0560                 0.0302
 Raman Activ --     15.9221                 0.0073               109.9899

                     58                     59                     60
                     A2                     A1                     A1
 Frequencies --   3211.6519              3213.0282              3214.7235
 Red. masses --      1.0884                 1.0884                 1.0912
 Frc consts  --      6.6143                 6.6202                 6.6442
 IR Inten    --      0.0000                 0.0412                14.2630
 Raman Activ --    108.7417               103.7067                80.9179

                     61                     62                     63
                     B2                     B2                     B1
 Frequencies --   3223.4309              3226.9492              3228.3699
 Red. masses --      1.0962                 1.0963                 1.0964
 Frc consts  --      6.7108                 6.7263                 6.7326
 IR Inten    --     27.3079                21.8106                20.3892
 Raman Activ --      7.1411                 2.7496                 2.8013

                     64                     65                     66
                     A1                     A1                     A1
 Frequencies --   3231.7595              3237.0721              3278.7656
 Red. masses --      1.0995                 1.1012                 1.0921
 Frc consts  --      6.7661                 6.7988                 6.9169
 IR Inten    --      9.4680                 0.2275                 3.1373
 Raman Activ --    283.7615               351.9237               244.1624

 - Thermochemistry -
 -------------------
 Temperature   298.150 Kelvin.  Pressure   1.00000 Atm.
 Atom     1 has atomic number  6 and mass  12.00000

 Molecular mass:   156.09390 amu.
 Principal axes and moments of inertia in atomic units:
                           1         2         3
     Eigenvalues --   955.124903836.963254154.84448
           X            0.00000   0.00000   1.00000
           Y            0.00000   1.00000   0.00000
           Z            1.00000   0.00000   0.00000
 This molecule is an asymmetric top.
 Rotational symmetry number  2.
 Warning -- assumption of classical behavior for rotation
           may cause significant error
 Rotational temperatures (Kelvin)      0.09068     0.02257     0.02085
 Rotational constants (GHZ):           1.88953     0.47036     0.43437
    2 imaginary frequencies ignored.
 Zero-point vibrational energy     523927.2 (Joules/Mol)
                                  125.22161 (Kcal/Mol)
 Warning -- explicit consideration of  14 degrees of freedom as
           vibrations may cause significant error
 Vibrational temperatures:     12.73   102.84   129.63   132.79   196.03
          (Kelvin)            544.76   548.32   550.80   559.14   857.87
                              876.53   877.42   878.50   879.63   971.72
                              972.97  1205.67  1210.21  1221.17  1221.92
                             1279.08  1301.87  1337.62  1342.38  1363.15
                             1384.10  1451.40  1454.17  1457.17  1459.15
                             1525.74  1525.95  1526.68  1529.18  1684.97
                             1689.68  1719.28  1725.15  1725.46  1726.87
                             1968.50  1969.13  2094.37  2097.90  2164.21
                             2164.92  2166.18  2168.80  2356.09  2356.37
                             2357.64  2358.69  4604.62  4607.13  4614.43
                             4620.84  4622.83  4625.26  4637.79  4642.85
                             4644.90  4649.78  4657.42  4717.41

 Zero-point correction=                           0.199553 (Hartree/Particle)
 Thermal correction to Energy=                    0.209583
 Thermal correction to Enthalpy=                  0.210527
 Thermal correction to Gibbs Free Energy=         0.161717
 Sum of electronic and zero-point Energies=           -463.203980
 Sum of electronic and thermal Energies=              -463.193951
 Sum of electronic and thermal Enthalpies=            -463.193007
 Sum of electronic and thermal Free Energies=         -463.241817

                     E (Thermal)             CV                S
                      KCal/Mol        Cal/Mol-Kelvin    Cal/Mol-Kelvin
 Total                  131.515             38.588            102.728
 Electronic               0.000              0.000              0.000
 Translational            0.889              2.981             41.045
 Rotational               0.889              2.981             29.722
 Vibrational            129.738             32.626             31.961
 Vibration     1          0.593              1.987              8.254
 Vibration     2          0.598              1.968              4.112
 Vibration     3          0.602              1.956              3.658
 Vibration     4          0.602              1.955              3.611
 Vibration     5          0.614              1.917              2.856
 Vibration     6          0.749              1.516              1.045
 Vibration     7          0.751              1.510              1.035
 Vibration     8          0.752              1.507              1.028
 Vibration     9          0.757              1.494              1.005
 Vibration    10          0.954              1.040              0.456
 Vibration    11          0.968              1.012              0.434
 Vibration    12          0.969              1.011              0.433
 Vibration    13          0.970              1.009              0.432
 Vibration    14          0.971              1.008              0.431

 Optimization completed.
    -- Stationary point found.
 Normal termination of Gaussian 09 at Thu Oct 13 12:05:14 2016.
