 Gaussian 09, Revision D.01,
 Gaussian 09:  ES64L-G09RevD.01 24-Apr-2013

 ------------------------
 # opt freq rhf/6-311+g**
 ------------------------

 -----
 title
 -----
 Symbolic Z-matrix:
 Charge =  0 Multiplicity = 1

 SCF Done:  E(RHF) =  -461.510760781     A.U. after   13 cycles
 SCF Done:  E(RHF) =  -461.511902599     A.U. after   12 cycles
 SCF Done:  E(RHF) =  -461.512170404     A.U. after   10 cycles
 SCF Done:  E(RHF) =  -461.512826351     A.U. after   12 cycles
 SCF Done:  E(RHF) =  -461.513574001     A.U. after   12 cycles
 SCF Done:  E(RHF) =  -461.514108697     A.U. after   13 cycles
 SCF Done:  E(RHF) =  -461.514358142     A.U. after   12 cycles
 SCF Done:  E(RHF) =  -461.514430112     A.U. after   12 cycles
 SCF Done:  E(RHF) =  -461.514431993     A.U. after    8 cycles
 SCF Done:  E(RHF) =  -461.514432946     A.U. after    8 cycles
 SCF Done:  E(RHF) =  -461.514433787     A.U. after    8 cycles
 SCF Done:  E(RHF) =  -461.514434482     A.U. after   10 cycles
 SCF Done:  E(RHF) =  -461.514434541     A.U. after    7 cycles
 Optimization completed.
    -- Stationary point found.

 1\1\GINC-TC-NODE157\FOpt\RHF\6-311+G(d,p)\C12H12\EPKTB\10-Oct-2016\0\\
 # opt freq rhf/6-311+g**\\title\\0,1\C,0.,0.,1.4835482475\C,0.,-1.1998
 19204,2.1782441489\C,0.,-1.2002474703,3.564576225\C,0.,0.,4.2581987296
 \C,0.,1.2002474703,3.564576225\C,0.,1.199819204,2.1782441489\H,0.,0.,0
 .4083674082\H,0.,-2.131092284,1.6399754044\H,0.,-2.1319187281,4.102362
 0404\H,0.,0.,5.3338957572\H,0.,2.1319187281,4.1023620404\H,0.,2.131092
 284,1.6399754044\C,-1.3865039585,0.,-2.8659889632\C,-0.693217123,1.200
 5502483,-2.866313379\C,0.693217123,1.2005502483,-2.866313379\C,1.38650

 Normal termination of Gaussian 09 at Mon Oct 10 14:21:55 2016.

 ---------------------------------------------------------------------
 #N Geom=AllCheck Guess=TCheck SCRF=Check GenChk RHF/6-311+G(d,p) Freq
 ---------------------------------------------------------------------

 Structure from the checkpoint file:  "benzene-rhf.chk"
 -----
 title
 -----
 Charge =  0 Multiplicity = 1

                         Standard orientation:
 ---------------------------------------------------------------------
 Center     Atomic      Atomic             Coordinates (Angstroms)
 Number     Number       Type             X           Y           Z
 ---------------------------------------------------------------------
      1          6           0        0.000000    0.000000    1.481053
      2          6           0        0.000000    1.199819    2.175749
      3          6           0        0.000000    1.200247    3.562081
      4          6           0        0.000000    0.000000    4.255703
      5          6           0        0.000000   -1.200247    3.562081
      6          6           0        0.000000   -1.199819    2.175749
      7          1           0        0.000000    0.000000    0.405872
      8          1           0        0.000000    2.131092    1.637480
      9          1           0        0.000000    2.131919    4.099867
     10          1           0        0.000000    0.000000    5.331400
     11          1           0        0.000000   -2.131919    4.099867
     12          1           0        0.000000   -2.131092    1.637480
     13          6           0        1.386504    0.000000   -2.868484
     14          6           0        0.693217   -1.200550   -2.868809
     15          6           0       -0.693217   -1.200550   -2.868809
     16          6           0       -1.386504    0.000000   -2.868484
     17          6           0       -0.693217    1.200550   -2.868809
     18          6           0        0.693217    1.200550   -2.868809
     19          1           0        2.462030    0.000000   -2.867560
     20          1           0        1.231193   -2.131961   -2.869531
     21          1           0       -1.231193   -2.131961   -2.869531
     22          1           0       -2.462030    0.000000   -2.867560
     23          1           0       -1.231193    2.131961   -2.869531
     24          1           0        1.231193    2.131961   -2.869531
 ---------------------------------------------------------------------

 SCF Done:  E(RHF) =  -461.514434541     A.U. after    1 cycles

 The electronic state is 1-A1.
 Alpha  occ. eigenvalues --  -11.23794 -11.23739 -11.23730 -11.23611 -11.23602
 Alpha  occ. eigenvalues --  -11.23543 -11.23022 -11.22957 -11.22879 -11.22802
 Alpha  occ. eigenvalues --  -11.22790 -11.22620  -1.16035  -1.15197  -1.02257
 Alpha  occ. eigenvalues --   -1.02248  -1.01447  -1.01411  -0.83067  -0.83061
 Alpha  occ. eigenvalues --   -0.82263  -0.82238  -0.71812  -0.70999  -0.64816
 Alpha  occ. eigenvalues --   -0.64016  -0.62663  -0.61849  -0.59470  -0.59458
 Alpha  occ. eigenvalues --   -0.58680  -0.58638  -0.50910  -0.50007  -0.49968
 Alpha  occ. eigenvalues --   -0.49963  -0.49165  -0.49058  -0.34178  -0.34175
 Alpha  occ. eigenvalues --   -0.33355  -0.33244
 Alpha virt. eigenvalues --    0.06150   0.07110   0.07492   0.07725   0.08705
 Alpha virt. eigenvalues --    0.08877   0.09419   0.09892   0.10555   0.10754
 Alpha virt. eigenvalues --    0.11444   0.11542   0.11557   0.12130   0.12430

 Mulliken charges:
               1
     1  C    0.162205
     2  C   -0.312694
     3  C   -0.099394
     4  C   -0.163164
     5  C   -0.099394
     6  C   -0.312694
     7  H    0.183533
     8  H    0.132502
     9  H    0.131758
    10  H    0.131173
    11  H    0.131758
    12  H    0.132502
    13  C   -0.123532
    14  C   -0.144046
    15  C   -0.144046
    16  C   -0.123532
    17  C   -0.144046
    18  C   -0.144046
    19  H    0.134445
    20  H    0.134067
    21  H    0.134067
    22  H    0.134445
    23  H    0.134067
    24  H    0.134067
 Sum of Mulliken charges =   0.00000

 Dipole moment (field-independent basis, Debye):
    X=              0.0000    Y=              0.0000    Z=             -0.3096  Tot=              0.3096
 Quadrupole moment (field-independent basis, Debye-Ang):
   XX=            -72.9221   YY=            -64.0783   ZZ=            -73.6037
   XY=              0.0000   XZ=              0.0000   YZ=              0.0000

  Exact polarizability: 112.582   0.000 143.094   0.000   0.000 125.799
 Approx polarizability: 116.143   0.000 145.093   0.000   0.000 115.955

 ******    1 imaginary frequencies (negative Signs) ******

                      1                      2                      3
                     A2                     B2                     B1
 Frequencies --     -3.9678                 4.3823                15.5761
 Red. masses --      3.6538                 3.7323                 3.6596
 Frc consts  --      0.0000                 0.0000                 0.0005
 IR Inten    --      0.0000                 0.0004                 0.0023
 Raman Activ --      3.2449                 0.7893                10.9533

                      4                      5                      6
                     A1                     B2                     B1
 Frequencies --     20.2554                24.0126                27.9028
 Red. masses --      6.4965                 3.8606                 3.8728
 Frc consts  --      0.0016                 0.0013                 0.0018
 IR Inten    --      0.0326                 0.0237                 0.0599
 Raman Activ --      0.1519                 4.9377                 0.1516

                      7                      8                      9
                     A1                     A2                     A2
 Frequencies --    448.2364               448.6420               449.4534
 Red. masses --      2.8619                 2.8637                 2.8593
 Frc consts  --      0.3388                 0.3396                 0.3403
 IR Inten    --      0.0001                 0.0000                 0.0000
 Raman Activ --      0.0042                 0.0000                 0.0111

                     10                     11                     12
                     B1                     A1                     A1
 Frequencies --    449.6721               661.3342               661.6646
 Red. masses --      2.8675                 6.0743                 6.0765
 Frc consts  --      0.3416                 1.5653                 1.5674
 IR Inten    --      0.0454                 0.1675                 0.0143
 Raman Activ --      0.0082                 4.5614                 4.7792

                     13                     14                     15
                     A2                     B2                     A1
 Frequencies --    661.8314               662.4821               756.0030
 Red. masses --      6.0795                 6.0877                 1.0850
 Frc consts  --      1.5690                 1.5742                 0.3654
 IR Inten    --      0.0000                 0.0066               165.4498
 Raman Activ --      3.6131                 4.8688                 0.0192

                     16                     17                     18
                     B1                     B1                     B1
 Frequencies --    756.3432               766.3054               770.7511
 Red. masses --      1.0851                 3.3461                 3.2891
 Frc consts  --      0.3657                 1.1577                 1.1512
 IR Inten    --    128.5761                 0.0012                 0.0943
 Raman Activ --      0.0002                 0.0001                 0.0039

                     19                     20                     21
                     B1                     A2                     B2
 Frequencies --    952.6480               953.1316               954.1509
 Red. masses --      1.2472                 1.2471                 1.2471
 Frc consts  --      0.6669                 0.6675                 0.6690
 IR Inten    --      0.0329                 0.0000                 0.2262
 Raman Activ --      4.3471                 1.7471                 2.2228

                     22                     23                     24
                     B1                     A1                     A1
 Frequencies --    957.4497              1069.0243              1069.4591
 Red. masses --      1.2452                 5.9897                 5.9901
 Frc consts  --      0.6725                 4.0330                 4.0366
 IR Inten    --      0.4070                 0.4063                 0.0008
 Raman Activ --      0.2392               165.2895                 8.9946

                     25                     26                     27
                     B1                     A1                     A2
 Frequencies --   1090.7500              1090.8971              1099.3974
 Red. masses --      6.4969                 6.4987                 1.3783
 Frc consts  --      4.5542                 4.5566                 0.9815
 IR Inten    --      0.0001                 0.0991                 0.0000
 Raman Activ --      0.0001                 0.0067                 0.0004

                     28                     29                     30
                     A1                     A2                     B1
 Frequencies --   1099.7737              1100.1460              1102.5627
 Red. masses --      1.3774                 1.3761                 1.3728
 Frc consts  --      0.9815                 0.9813                 0.9833
 IR Inten    --      0.0024                 0.0000                 0.1137
 Raman Activ --      0.0139                 0.0109                 0.0043

                     31                     32                     33
                     B1                     B1                     B2
 Frequencies --   1121.3427              1125.0506              1127.3887
 Red. masses --      1.2884                 1.3105                 1.7397
 Frc consts  --      0.9545                 0.9773                 1.3027
 IR Inten    --      0.0092                 0.3601                 1.2553
 Raman Activ --      0.0004                 0.0043                 0.0069

                     34                     35                     36
                     A1                     B1                     B2
 Frequencies --   1127.5992              1127.8025              1128.1327
 Red. masses --      1.7352                 1.7144                 1.7428
 Frc consts  --      1.2999                 1.2848                 1.3068
 IR Inten    --      4.9667                 4.1150                 7.5244
 Raman Activ --      0.0271                 0.0052                 0.0017

                     37                     38                     39
                     B2                     B2                     A1
 Frequencies --   1179.7973              1179.9945              1278.5789
 Red. masses --      2.2782                 2.2733                 1.1496
 Frc consts  --      1.8683                 1.8650                 1.1073
 IR Inten    --      0.0323                 0.0612                 0.0834
 Raman Activ --      0.0053                 0.0216                 4.8249

                     40                     41                     42
                     A1                     A2                     B2
 Frequencies --   1279.4187              1279.8052              1280.6846
 Red. masses --      1.1505                 1.1504                 1.1514
 Frc consts  --      1.1095                 1.1101                 1.1126
 IR Inten    --      0.0002                 0.0000                 0.4491
 Raman Activ --      3.0582                 3.4560                 2.8233

                     43                     44                     45
                     B2                     B2                     A2
 Frequencies --   1337.8149              1338.0625              1491.0816
 Red. masses --      1.5706                 1.5729                 1.2470
 Frc consts  --      1.6562                 1.6592                 1.6335
 IR Inten    --      0.0006                 0.1915                 0.0000
 Raman Activ --      0.0003                 0.0603                 0.0000

                     46                     47                     48
                     B2                     A1                     B2
 Frequencies --   1491.7040              1628.2728              1628.4820
 Red. masses --      1.2470                 1.9630                 1.9571
 Frc consts  --      1.6348                 3.0664                 3.0580
 IR Inten    --      0.0107                12.1564                15.8959
 Raman Activ --      0.0015                 0.1609                 0.0319

                     49                     50                     51
                     B1                     B2                     A1
 Frequencies --   1628.5892              1629.5430              1772.6931
 Red. masses --      1.9595                 1.9532                 5.0053
 Frc consts  --      3.0621                 3.0558                 9.2671
 IR Inten    --     10.4912                 1.8237                 0.0103
 Raman Activ --      0.0936                 0.1780                13.0472

                     52                     53                     54
                     A2                     A1                     B2
 Frequencies --   1772.8636              1772.9830              1773.1116
 Red. masses --      5.0062                 5.0216                 4.9931
 Frc consts  --      9.2707                 9.3003                 9.2489
 IR Inten    --      0.0000                 0.3162                 0.2226
 Raman Activ --     14.7969                21.9339                14.9279

                     55                     56                     57
                     A1                     B1                     B2
 Frequencies --   3311.3214              3312.4463              3321.4703
 Red. masses --      1.0850                 1.0848                 1.0897
 Frc consts  --      7.0092                 7.0131                 7.0827
 IR Inten    --      0.9166                 0.0303                 0.3784
 Raman Activ --      5.8972                 0.0007               114.2580

                     58                     59                     60
                     A2                     A1                     A1
 Frequencies --   3323.3150              3324.1789              3325.3442
 Red. masses --      1.0898                 1.0898                 1.0901
 Frc consts  --      7.0915                 7.0954                 7.1021
 IR Inten    --      0.0000                 0.0086                 5.6063
 Raman Activ --    107.9096               103.6953               124.0576

                     61                     62                     63
                     B2                     B2                     B1
 Frequencies --   3339.9108              3341.3827              3342.2020
 Red. masses --      1.0968                 1.0969                 1.0969
 Frc consts  --      7.2083                 7.2153                 7.2189
 IR Inten    --     34.4273                47.8710                39.2258
 Raman Activ --      0.3176                 1.0428                 0.9631

                     64                     65                     66
                     A1                     A1                     A1
 Frequencies --   3343.2096              3352.7529              3353.6388
 Red. masses --      1.0970                 1.1006                 1.1001
 Frc consts  --      7.2239                 7.2890                 7.2901
 IR Inten    --     32.8522                 0.0339                 0.5150
 Raman Activ --     33.7375               238.6943               457.9867

 - Thermochemistry -
 -------------------
 Temperature   298.150 Kelvin.  Pressure   1.00000 Atm.
 Atom     1 has atomic number  6 and mass  12.00000

 Molecular mass:   156.09390 amu.
 Principal axes and moments of inertia in atomic units:
                           1         2         3
     Eigenvalues --   937.328435212.715635524.87433
           X            0.00000   0.00000   1.00000
           Y            0.00000   1.00000   0.00000
           Z            1.00000   0.00000   0.00000
 This molecule is an asymmetric top.
 Rotational symmetry number  2.
 Warning -- assumption of classical behavior for rotation
           may cause significant error
 Rotational temperatures (Kelvin)      0.09240     0.01662     0.01568
 Rotational constants (GHZ):           1.92541     0.34622     0.32666
    1 imaginary frequencies ignored.
 Zero-point vibrational energy     559949.3 (Joules/Mol)
                                  133.83109 (Kcal/Mol)
 Warning -- explicit consideration of   9 degrees of freedom as
           vibrations may cause significant error
 Vibrational temperatures:      6.31    22.41    29.14    34.55    40.15
          (Kelvin)            644.91   645.49   646.66   646.98   951.51
                              951.99   952.23   953.16  1087.72  1088.21
                             1102.54  1108.94  1370.65  1371.34  1372.81
                             1377.55  1538.09  1538.71  1569.34  1569.56
                             1581.79  1582.33  1582.86  1586.34  1613.36
                             1618.69  1622.06  1622.36  1622.65  1623.13
                             1697.46  1697.75  1839.59  1840.80  1841.35
                             1842.62  1924.81  1925.17  2145.33  2146.23
                             2342.72  2343.02  2343.17  2344.55  2550.51
                             2550.75  2550.92  2551.11  4764.25  4765.87
                             4778.85  4781.50  4782.75  4784.42  4805.38
                             4807.50  4808.68  4810.13  4823.86  4825.13

 Zero-point correction=                           0.213273 (Hartree/Particle)
 Thermal correction to Energy=                    0.223205
 Thermal correction to Enthalpy=                  0.224150
 Thermal correction to Gibbs Free Energy=         0.169903
 Sum of electronic and zero-point Energies=           -461.301161
 Sum of electronic and thermal Energies=              -461.291229
 Sum of electronic and thermal Enthalpies=            -461.290285
 Sum of electronic and thermal Free Energies=         -461.344532

                     E (Thermal)             CV                S
                      KCal/Mol        Cal/Mol-Kelvin    Cal/Mol-Kelvin
 Total                  140.064             35.184            114.173
 Electronic               0.000              0.000              0.000
 Translational            0.889              2.981             41.045
 Rotational               0.889              2.981             30.291
 Vibrational            138.286             29.222             42.837
 Vibration     1          0.593              1.987              9.650
 Vibration     2          0.593              1.986              7.131
 Vibration     3          0.593              1.986              6.609
 Vibration     4          0.593              1.985              6.271
 Vibration     5          0.593              1.984              5.973
 Vibration     6          0.807              1.365              0.801
 Vibration     7          0.808              1.364              0.800
 Vibration     8          0.808              1.362              0.797
 Vibration     9          0.809              1.362              0.797

 Optimization completed.
    -- Stationary point found.

 1\1\GINC-TC-NODE157\Freq\RHF\6-311+G(d,p)\C12H12\EPKTB\10-Oct-2016\0\\
 #N Geom=AllCheck Guess=TCheck SCRF=Check GenChk RHF/6-311+G(d,p) Freq\
 \title\\0,1\C,0.,0.,1.4835482475\C,0.,-1.199819204,2.1782441489\C,0.,-
 1.2002474703,3.564576225\C,0.,0.,4.2581987296\C,0.,1.2002474703,3.5645
 76225\C,0.,1.199819204,2.1782441489\H,0.,0.,0.4083674082\H,0.,-2.13109
 2284,1.6399754044\H,0.,-2.1319187281,4.1023620404\H,0.,0.,5.3338957572
 \H,0.,2.1319187281,4.1023620404\H,0.,2.131092284,1.6399754044\C,-1.386
 5039585,0.,-2.8659889632\C,-0.693217123,1.2005502483,-2.866313379\C,0.

 Normal termination of Gaussian 09 at Mon Oct 10 14:29:28 2016.
