 Gaussian 09, Revision D.01,
 Gaussian 09:  ES64L-G09RevD.01 24-Apr-2013

 ------------------------------------------------
 # opt freq mp2(full)/6-311+g** geom=connectivity
 ------------------------------------------------

 -------------------
 Title Card Required
 -------------------
 Symbolic Z-matrix:
 Charge =  0 Multiplicity = 1

 SCF Done:  E(RHF) =  -152.085143677     A.U. after   11 cycles
 E2 =    -0.4866616305D+00 EUMP2 =    -0.15257180530748D+03
 SCF Done:  E(RHF) =  -152.095698473     A.U. after   10 cycles
 E2 =    -0.4864451862D+00 EUMP2 =    -0.15258214365884D+03
 SCF Done:  E(RHF) =  -152.057509980     A.U. after   12 cycles
 E2 =    -0.4995828780D+00 EUMP2 =    -0.15255709285834D+03
 SCF Done:  E(RHF) =  -152.096096701     A.U. after   10 cycles
 E2 =    -0.4897718961D+00 EUMP2 =    -0.15258586859724D+03
 SCF Done:  E(RHF) =  -152.109357796     A.U. after   12 cycles
 E2 =    -0.4827908570D+00 EUMP2 =    -0.15259214865270D+03
 SCF Done:  E(RHF) =  -152.110948225     A.U. after   10 cycles
 E2 =    -0.4843050399D+00 EUMP2 =    -0.15259525326530D+03
 SCF Done:  E(RHF) =  -152.111431767     A.U. after    9 cycles
 E2 =    -0.4841979008D+00 EUMP2 =    -0.15259562966746D+03
 SCF Done:  E(RHF) =  -152.111843193     A.U. after    9 cycles
 E2 =    -0.4839896467D+00 EUMP2 =    -0.15259583283933D+03
 SCF Done:  E(RHF) =  -152.112027879     A.U. after    9 cycles
 E2 =    -0.4838428528D+00 EUMP2 =    -0.15259587073203D+03
 SCF Done:  E(RHF) =  -152.112095203     A.U. after    8 cycles
 E2 =    -0.4837881160D+00 EUMP2 =    -0.15259588331945D+03
 SCF Done:  E(RHF) =  -152.112138985     A.U. after    8 cycles
 E2 =    -0.4837622485D+00 EUMP2 =    -0.15259590123334D+03
 SCF Done:  E(RHF) =  -152.112042790     A.U. after   10 cycles
 E2 =    -0.4839069734D+00 EUMP2 =    -0.15259594976369D+03
 SCF Done:  E(RHF) =  -152.112020557     A.U. after    8 cycles
 E2 =    -0.4839328695D+00 EUMP2 =    -0.15259595342624D+03
 SCF Done:  E(RHF) =  -152.111984041     A.U. after    8 cycles
 E2 =    -0.4839735893D+00 EUMP2 =    -0.15259595763008D+03
 SCF Done:  E(RHF) =  -152.112002092     A.U. after    7 cycles
 E2 =    -0.4839556651D+00 EUMP2 =    -0.15259595775672D+03
 SCF Done:  E(RHF) =  -152.111999618     A.U. after    7 cycles
 E2 =    -0.4839581596D+00 EUMP2 =    -0.15259595777813D+03
 Optimization completed.
    -- Stationary point found.
 Normal termination of Gaussian 09 at Sun Oct  9 22:28:18 2016.

 ----------------------------------------------------------------------
 #N Geom=AllCheck Guess=TCheck SCRF=Check GenChk RMP2-Full/6-311+G(d,p)
  Freq
 ----------------------------------------------------------------------

 Structure from the checkpoint file:  "H20Aggmp2.chk"
 -------------------
 Title Card Required
 -------------------
 Charge =  0 Multiplicity = 1

                         Standard orientation:
 ---------------------------------------------------------------------
 Center     Atomic      Atomic             Coordinates (Angstroms)
 Number     Number       Type             X           Y           Z
 ---------------------------------------------------------------------
      1          8           0       -0.035763   -1.551696    0.000000
      2          1           0        0.077384   -0.594237    0.000000
      3          1           0        0.861833   -1.886315    0.000000
      4          8           0       -0.035763    1.376111    0.000000
      5          1           0        0.551999    2.133888    0.000000
      6          1           0       -0.919013    1.751348    0.000000
 ---------------------------------------------------------------------

 SCF Done:  E(RHF) =  -152.111999618     A.U. after    1 cycles
 E2 =    -0.4839581592D+00 EUMP2 =    -0.15259595777773D+03
 E2 =    -0.4839581592D+00 EUMP2 =    -0.15259595777773D+03

 The electronic state is 1-A'.
 Alpha  occ. eigenvalues --  -20.59152 -20.53217  -1.38055  -1.32116  -0.74531
 Alpha  occ. eigenvalues --   -0.69294  -0.61371  -0.54982  -0.53672  -0.47726
 Alpha virt. eigenvalues --    0.12285   0.17096   0.19726   0.22712   0.23067
 Alpha virt. eigenvalues --    0.24116   0.26601   0.28665   0.28968   0.34332
 Alpha virt. eigenvalues --    0.39045   0.42500   0.65341   0.67744   0.70156

 Mulliken charges:
               1
     1  O   -0.624281
     2  H    0.399775
     3  H    0.247377
     4  O   -0.599898
     5  H    0.295545
     6  H    0.281482
 Sum of Mulliken charges =   0.00000

 Dipole moment (field-independent basis, Debye):
    X=              1.3085    Y=              3.7720    Z=              0.0000  Tot=              3.9925
 Quadrupole moment (field-independent basis, Debye-Ang):
   XX=             -9.7351   YY=             -8.4036   ZZ=            -15.1503
   XY=             -4.1540   XZ=              0.0000   YZ=              0.0000

  Exact polarizability:  14.806  -0.548  16.911   0.000   0.000  13.488
 Approx polarizability:  11.774  -0.341  11.660   0.000   0.000   8.664

 ******    2 imaginary frequencies (negative Signs) ******

                      1                      2                      3
                     A"                     A"                     A'
 Frequencies --   -224.0985               -96.6656               135.6639
 Red. masses --      1.1638                 1.0568                 1.3347
 Frc consts  --      0.0344                 0.0058                 0.0145
 IR Inten    --    146.7545               273.4586                60.6899

                      4                      5                      6
                     A'                     A'                     A"
 Frequencies --    175.1409               402.7344               468.0660
 Red. masses --      2.8214                 1.0847                 1.0415
 Frc consts  --      0.0510                 0.1037                 0.1344
 IR Inten    --     25.6143               122.5995               140.3348

                      7                      8                      9
                     A'                     A'                     A'
 Frequencies --   1635.0079              1670.1632              3830.6404
 Red. masses --      1.0850                 1.0757                 1.0514
 Frc consts  --      1.7088                 1.7680                 9.0900
 IR Inten    --     69.4145                44.0668               217.1493

                     10                     11                     12
                     A'                     A'                     A'
 Frequencies --   3884.1166              3982.6821              4005.1244
 Red. masses --      1.0458                 1.0760                 1.0818
 Frc consts  --      9.2955                10.0560                10.2243
 IR Inten    --     12.4457               109.3015                94.0030

 - Thermochemistry -
 -------------------
 Temperature   298.150 Kelvin.  Pressure   1.00000 Atm.
 Atom     1 has atomic number  8 and mass  15.99491

 Molecular mass:    36.02113 amu.
 Principal axes and moments of inertia in atomic units:
                           1         2         3
     Eigenvalues --     6.75563 287.19457 293.95020
           X           -0.02600   0.99966   0.00000
           Y            0.99966   0.02600   0.00000
           Z            0.00000   0.00000   1.00000
 This molecule is an asymmetric top.
 Rotational symmetry number  1.
 Rotational temperatures (Kelvin)     12.82099     0.30159     0.29465
 Rotational constants (GHZ):         267.14633     6.28404     6.13962
    2 imaginary frequencies ignored.
 Zero-point vibrational energy     120759.1 (Joules/Mol)
                                   28.86211 (Kcal/Mol)
 Warning -- explicit consideration of   4 degrees of freedom as
           vibrations may cause significant error
 Vibrational temperatures:    195.19   251.99   579.44   673.44  2352.41
          (Kelvin)           2402.99  5511.43  5588.37  5730.18  5762.47

 Zero-point correction=                           0.045995 (Hartree/Particle)
 Thermal correction to Energy=                    0.050657
 Thermal correction to Enthalpy=                  0.051602
 Thermal correction to Gibbs Free Energy=         0.020909
 Sum of electronic and zero-point Energies=           -152.549963
 Sum of electronic and thermal Energies=              -152.545300
 Sum of electronic and thermal Enthalpies=            -152.544356
 Sum of electronic and thermal Free Energies=         -152.575049

                     E (Thermal)             CV                S
                      KCal/Mol        Cal/Mol-Kelvin    Cal/Mol-Kelvin
 Total                   31.788             12.625             64.598
 Electronic               0.000              0.000              0.000
 Translational            0.889              2.981             36.674
 Rotational               0.889              2.981             20.972
 Vibrational             30.010              6.663              6.952
 Vibration     1          0.613              1.918              2.864
 Vibration     2          0.627              1.873              2.380
 Vibration     3          0.768              1.464              0.953
 Vibration     4          0.825              1.321              0.743

 Optimization completed.
    -- Stationary point found.
 Normal termination of Gaussian 09 at Sun Oct  9 22:28:35 2016.
