 Gaussian 09, Revision D.01,
 Gaussian 09:  ES64L-G09RevD.01 24-Apr-2013

 --------------------------------------------
 # opt freq b3lyp/6-311+g** geom=connectivity
 --------------------------------------------

 -------------------
 Title Card Required
 -------------------
 Symbolic Z-matrix:
 Charge =  0 Multiplicity = 1

 SCF Done:  E(RB3LYP) =  -152.901552184     A.U. after   12 cycles
 SCF Done:  E(RB3LYP) =  -152.911999467     A.U. after   11 cycles
 SCF Done:  E(RB3LYP) =  -152.917112940     A.U. after   11 cycles
 SCF Done:  E(RB3LYP) =  -152.922610355     A.U. after   11 cycles
 SCF Done:  E(RB3LYP) =  -152.924270967     A.U. after   11 cycles
 SCF Done:  E(RB3LYP) =  -152.924939626     A.U. after   10 cycles
 SCF Done:  E(RB3LYP) =  -152.924981709     A.U. after    9 cycles
 SCF Done:  E(RB3LYP) =  -152.925020406     A.U. after    9 cycles
 SCF Done:  E(RB3LYP) =  -152.925055018     A.U. after    9 cycles
 SCF Done:  E(RB3LYP) =  -152.925090904     A.U. after    9 cycles
 SCF Done:  E(RB3LYP) =  -152.925128350     A.U. after    9 cycles
 SCF Done:  E(RB3LYP) =  -152.925153960     A.U. after    9 cycles
 SCF Done:  E(RB3LYP) =  -152.925160895     A.U. after    7 cycles
 SCF Done:  E(RB3LYP) =  -152.925161298     A.U. after    7 cycles
 SCF Done:  E(RB3LYP) =  -152.925161353     A.U. after    6 cycles
 Optimization completed.
    -- Stationary point found.
 Normal termination of Gaussian 09 at Sun Oct  9 22:27:11 2016.

 ----------------------------------------------------------------------
 #N Geom=AllCheck Guess=TCheck SCRF=Check GenChk RB3LYP/6-311+G(d,p) Fr
 eq
 ----------------------------------------------------------------------

 Structure from the checkpoint file:  "H20Aggb3lyp.chk"
 -------------------
 Title Card Required
 -------------------
 Charge =  0 Multiplicity = 1

                         Standard orientation:
 ---------------------------------------------------------------------
 Center     Atomic      Atomic             Coordinates (Angstroms)
 Number     Number       Type             X           Y           Z
 ---------------------------------------------------------------------
      1          8           0       -0.036133   -1.541606    0.000000
      2          1           0        0.080427   -0.579782    0.000000
      3          1           0        0.853404   -1.905026    0.000000
      4          8           0       -0.036133    1.369965    0.000000
      5          1           0        0.568634    2.117657    0.000000
      6          1           0       -0.924333    1.740281    0.000000
 ---------------------------------------------------------------------

 SCF Done:  E(RB3LYP) =  -152.925161353     A.U. after    1 cycles

 The electronic state is 1-A'.
 Alpha  occ. eigenvalues --  -19.15871 -19.09874  -1.04830  -0.98850  -0.57046
 Alpha  occ. eigenvalues --   -0.51478  -0.42809  -0.36203  -0.34951  -0.29149
 Alpha virt. eigenvalues --   -0.00109   0.05608   0.08071   0.13164   0.13508
 Alpha virt. eigenvalues --    0.14186   0.16956   0.18663   0.19281   0.25417
 Alpha virt. eigenvalues --    0.26284   0.28142   0.46151   0.48011   0.50916

 Mulliken charges:
               1
     1  O   -0.599262
     2  H    0.378459
     3  H    0.241184
     4  O   -0.587953
     5  H    0.290989
     6  H    0.276583
 Sum of Mulliken charges =   0.00000

 Dipole moment (field-independent basis, Debye):
    X=              1.2802    Y=              3.6492    Z=              0.0000  Tot=              3.8672
 Quadrupole moment (field-independent basis, Debye-Ang):
   XX=            -10.1808   YY=             -8.8527   ZZ=            -15.6338
   XY=             -4.0001   XZ=              0.0000   YZ=              0.0000

  Exact polarizability:  15.309  -0.633  18.090   0.000   0.000  13.783
 Approx polarizability:  18.925  -0.665  19.751   0.000   0.000  14.550

 ******    2 imaginary frequencies (negative Signs) ******

                      1                      2                      3
                     A"                     A"                     A'
 Frequencies --   -175.6193               -52.5702               144.4093
 Red. masses --      1.1475                 1.0708                 1.4059
 Frc consts  --      0.0209                 0.0017                 0.0173
 IR Inten    --     67.4956               328.8554                54.7245

                      4                      5                      6
                     A'                     A'                     A"
 Frequencies --    185.0079               408.7765               496.8696
 Red. masses --      2.5384                 1.0850                 1.0426
 Frc consts  --      0.0512                 0.1068                 0.1516
 IR Inten    --     30.6035               116.6717               162.0749

                      7                      8                      9
                     A'                     A'                     A'
 Frequencies --   1618.8307              1640.3391              3732.3316
 Red. masses --      1.0868                 1.0763                 1.0532
 Frc consts  --      1.6781                 1.7063                 8.6440
 IR Inten    --     73.0142                52.7250               266.5941

                     10                     11                     12
                     A'                     A'                     A'
 Frequencies --   3823.1580              3897.5099              3929.0259
 Red. masses --      1.0444                 1.0745                 1.0834
 Frc consts  --      8.9941                 9.6168                 9.8536
 IR Inten    --     13.5179                86.5112                90.0783

 - Thermochemistry -
 -------------------
 Temperature   298.150 Kelvin.  Pressure   1.00000 Atm.
 Atom     1 has atomic number  8 and mass  15.99491

 Molecular mass:    36.02113 amu.
 Principal axes and moments of inertia in atomic units:
                           1         2         3
     Eigenvalues --     6.81284 284.26040 291.07324
           X           -0.02595   0.99966   0.00000
           Y            0.99966   0.02595   0.00000
           Z            0.00000   0.00000   1.00000
 This molecule is an asymmetric top.
 Rotational symmetry number  1.
 Rotational temperatures (Kelvin)     12.71332     0.30470     0.29757
 Rotational constants (GHZ):         264.90296     6.34890     6.20030
    2 imaginary frequencies ignored.
 Zero-point vibrational energy     118886.4 (Joules/Mol)
                                   28.41454 (Kcal/Mol)
 Warning -- explicit consideration of   4 degrees of freedom as
           vibrations may cause significant error
 Vibrational temperatures:    207.77   266.18   588.14   714.88  2329.13
          (Kelvin)           2360.08  5369.99  5500.66  5607.64  5652.98

 Zero-point correction=                           0.045281 (Hartree/Particle)
 Thermal correction to Energy=                    0.049885
 Thermal correction to Enthalpy=                  0.050829
 Thermal correction to Gibbs Free Energy=         0.020293
 Sum of electronic and zero-point Energies=           -152.879880
 Sum of electronic and thermal Energies=              -152.875277
 Sum of electronic and thermal Enthalpies=            -152.874332
 Sum of electronic and thermal Free Energies=         -152.904868

                     E (Thermal)             CV                S
                      KCal/Mol        Cal/Mol-Kelvin    Cal/Mol-Kelvin
 Total                   31.303             12.533             64.267
 Electronic               0.000              0.000              0.000
 Translational            0.889              2.981             36.674
 Rotational               0.889              2.981             20.960
 Vibrational             29.526              6.572              6.632
 Vibration     1          0.616              1.909              2.745
 Vibration     2          0.631              1.860              2.277
 Vibration     3          0.773              1.451              0.931
 Vibration     4          0.852              1.257              0.666

 Optimization completed.
    -- Stationary point found.
 Normal termination of Gaussian 09 at Sun Oct  9 22:27:21 2016.
