 Gaussian 09, Revision D.01,
 Gaussian 09:  ES64L-G09RevD.01 24-Apr-2013

 ------------------------------------------
 # opt freq rhf/6-311+g** geom=connectivity
 ------------------------------------------

 -------------------
 Title Card Required
 -------------------
 Symbolic Z-matrix:
 Charge =  0 Multiplicity = 1

 SCF Done:  E(RHF) =  -152.085143677     A.U. after   11 cycles
 SCF Done:  E(RHF) =  -152.097360465     A.U. after   10 cycles
 SCF Done:  E(RHF) =  -152.073273043     A.U. after   12 cycles
 SCF Done:  E(RHF) =  -152.103832381     A.U. after   11 cycles
 SCF Done:  E(RHF) =  -152.101817850     A.U. after   11 cycles
 SCF Done:  E(RHF) =  -152.111293287     A.U. after   10 cycles
 SCF Done:  E(RHF) =  -152.106357136     A.U. after   12 cycles
 SCF Done:  E(RHF) =  -152.112415232     A.U. after    9 cycles
 SCF Done:  E(RHF) =  -152.112938948     A.U. after   11 cycles
 SCF Done:  E(RHF) =  -152.113344555     A.U. after   10 cycles
 SCF Done:  E(RHF) =  -152.113429071     A.U. after    9 cycles
 SCF Done:  E(RHF) =  -152.113471264     A.U. after    9 cycles
 SCF Done:  E(RHF) =  -152.113493584     A.U. after    9 cycles
 SCF Done:  E(RHF) =  -152.113544788     A.U. after   10 cycles
 SCF Done:  E(RHF) =  -152.113610119     A.U. after   10 cycles
 SCF Done:  E(RHF) =  -152.113653058     A.U. after    8 cycles
 SCF Done:  E(RHF) =  -152.113656600     A.U. after    8 cycles
 SCF Done:  E(RHF) =  -152.113658148     A.U. after    7 cycles
 SCF Done:  E(RHF) =  -152.113658292     A.U. after    7 cycles
 Optimization completed.
    -- Stationary point found.
 Normal termination of Gaussian 09 at Sun Oct  9 22:29:16 2016.

 ---------------------------------------------------------------------
 #N Geom=AllCheck Guess=TCheck SCRF=Check GenChk RHF/6-311+G(d,p) Freq
 ---------------------------------------------------------------------

 Structure from the checkpoint file:  "H20Aggrhf.chk"
 -------------------
 Title Card Required
 -------------------
 Charge =  0 Multiplicity = 1

                         Standard orientation:
 ---------------------------------------------------------------------
 Center     Atomic      Atomic             Coordinates (Angstroms)
 Number     Number       Type             X           Y           Z
 ---------------------------------------------------------------------
      1          8           0       -0.034548   -1.589046    0.000000
      2          1           0        0.056357   -0.648047    0.000000
      3          1           0        0.838693   -1.937876    0.000000
      4          8           0       -0.034548    1.421095    0.000000
      5          1           0        0.562812    2.148619    0.000000
      6          1           0       -0.905089    1.780911    0.000000
 ---------------------------------------------------------------------

 SCF Done:  E(RHF) =  -152.113658292     A.U. after    1 cycles

 The electronic state is 1-A'.
 Alpha  occ. eigenvalues --  -20.58560 -20.53136  -1.38570  -1.33164  -0.75707
 Alpha  occ. eigenvalues --   -0.70663  -0.61215  -0.55200  -0.53517  -0.48102
 Alpha virt. eigenvalues --    0.12644   0.17169   0.19853   0.22649   0.23062
 Alpha virt. eigenvalues --    0.23996   0.26513   0.28650   0.28816   0.34433
 Alpha virt. eigenvalues --    0.38465   0.42200   0.67209   0.69001   0.71696

 Mulliken charges:
               1
     1  O   -0.623453
     2  H    0.392334
     3  H    0.253021
     4  O   -0.595326
     5  H    0.293641
     6  H    0.279783
 Sum of Mulliken charges =   0.00000

 Dipole moment (field-independent basis, Debye):
    X=              1.3042    Y=              3.6213    Z=              0.0000  Tot=              3.8490
 Quadrupole moment (field-independent basis, Debye-Ang):
   XX=             -9.7438   YY=             -8.3503   ZZ=            -15.0758
   XY=             -4.1764   XZ=              0.0000   YZ=              0.0000

  Exact polarizability:  13.478  -0.535  14.674   0.000   0.000  11.072
 Approx polarizability:  11.323  -0.379  11.173   0.000   0.000   8.566

 ******    1 imaginary frequencies (negative Signs) ******

                      1                      2                      3
                     A"                     A"                     A'
 Frequencies --   -137.5819                69.7129               128.7019
 Red. masses --      1.1011                 1.1040                 1.4702
 Frc consts  --      0.0123                 0.0032                 0.0143
 IR Inten    --      2.0265               391.3321                55.2820
 Raman Activ --      0.5902                 0.0037                 0.4561

                      4                      5                      6
                     A'                     A'                     A"
 Frequencies --    159.9455               379.3448               484.7853
 Red. masses --      2.3399                 1.0803                 1.0499
 Frc consts  --      0.0353                 0.0916                 0.1454
 IR Inten    --     32.4115               130.4085               243.9874
 Raman Activ --      0.1328                 0.3802                 0.0428

                      7                      8                      9
                     A'                     A'                     A'
 Frequencies --   1742.4063              1761.1288              4100.1662
 Red. masses --      1.0849                 1.0778                 1.0499
 Frc consts  --      1.9406                 1.9697                10.3996
 IR Inten    --     90.8475                80.2381               194.2603
 Raman Activ --      3.1818                 4.4699               104.5242

                     10                     11                     12
                     A'                     A'                     A'
 Frequencies --   4139.0603              4224.8650              4241.1471
 Red. masses --      1.0450                 1.0789                 1.0840
 Frc consts  --     10.5478                11.3462                11.4881
 IR Inten    --     26.5768               128.6387               119.1192
 Raman Activ --     60.7267                41.9719                31.7302

 - Thermochemistry -
 -------------------
 Temperature   298.150 Kelvin.  Pressure   1.00000 Atm.
 Atom     1 has atomic number  8 and mass  15.99491

 Molecular mass:    36.02113 amu.
 Principal axes and moments of inertia in atomic units:
                           1         2         3
     Eigenvalues --     6.56406 302.63587 309.19992
           X           -0.02423   0.99971   0.00000
           Y            0.99971   0.02423   0.00000
           Z            0.00000   0.00000   1.00000
 This molecule is an asymmetric top.
 Rotational symmetry number  1.
 Rotational temperatures (Kelvin)     13.19517     0.28620     0.28012
 Rotational constants (GHZ):         274.94302     5.96341     5.83681
    1 imaginary frequencies ignored.
 Zero-point vibrational energy     128187.4 (Joules/Mol)
                                   30.63753 (Kcal/Mol)
 Warning -- explicit consideration of   5 degrees of freedom as
           vibrations may cause significant error
 Vibrational temperatures:    100.30   185.17   230.13   545.79   697.50
          (Kelvin)           2506.93  2533.87  5899.22  5955.18  6078.63
                             6102.06

 Zero-point correction=                           0.048824 (Hartree/Particle)
 Thermal correction to Energy=                    0.054327
 Thermal correction to Enthalpy=                  0.055271
 Thermal correction to Gibbs Free Energy=         0.022419
 Sum of electronic and zero-point Energies=           -152.064834
 Sum of electronic and thermal Energies=              -152.059331
 Sum of electronic and thermal Enthalpies=            -152.058387
 Sum of electronic and thermal Free Energies=         -152.091240

                     E (Thermal)             CV                S
                      KCal/Mol        Cal/Mol-Kelvin    Cal/Mol-Kelvin
 Total                   34.091             14.605             69.145
 Electronic               0.000              0.000              0.000
 Translational            0.889              2.981             36.674
 Rotational               0.889              2.981             21.046
 Vibrational             32.313              8.643             11.424
 Vibration     1          0.598              1.969              4.161
 Vibration     2          0.611              1.925              2.965
 Vibration     3          0.622              1.891              2.550
 Vibration     4          0.749              1.514              1.042
 Vibration     5          0.841              1.284              0.697

 Optimization completed.
    -- Stationary point found.
 Normal termination of Gaussian 09 at Sun Oct  9 22:29:21 2016.
