 Gaussian 09, Revision D.01,
 Gaussian 09:  ES64L-G09RevD.01 24-Apr-2013

 ------------------------------------------
 # opt freq rhf/6-311+g** geom=connectivity
 ------------------------------------------

 -------------------
 Title Card Required
 -------------------
 Symbolic Z-matrix:
 Charge =  1 Multiplicity = 1

 SCF Done:  E(RHF) =  -83.2730513162     A.U. after   10 cycles
 SCF Done:  E(RHF) =  -83.3215267215     A.U. after    9 cycles
 SCF Done:  E(RHF) =  -83.3460708691     A.U. after    9 cycles
 SCF Done:  E(RHF) =  -83.3469942208     A.U. after    8 cycles
 SCF Done:  E(RHF) =  -83.3471015291     A.U. after    8 cycles
 SCF Done:  E(RHF) =  -83.3471245442     A.U. after    7 cycles
 SCF Done:  E(RHF) =  -83.3471403767     A.U. after    8 cycles
 SCF Done:  E(RHF) =  -83.3471456370     A.U. after    7 cycles
 SCF Done:  E(RHF) =  -83.3471464730     A.U. after    7 cycles
 Optimization completed.
    -- Stationary point found.
 Normal termination of Gaussian 09 at Mon Oct 10 15:04:14 2016.

 ---------------------------------------------------------------------
 #N Geom=AllCheck Guess=TCheck SCRF=Check GenChk RHF/6-311+G(d,p) Freq
 ---------------------------------------------------------------------

 Structure from the checkpoint file:  "Li+OH2rhf.chk"
 -------------------
 Title Card Required
 -------------------
 Charge =  1 Multiplicity = 1

                         Standard orientation:
 ---------------------------------------------------------------------
 Center     Atomic      Atomic             Coordinates (Angstroms)
 Number     Number       Type             X           Y           Z
 ---------------------------------------------------------------------
      1          8           0        0.000007   -0.338539    0.000000
      2          1           0        0.759219   -0.905743    0.000000
      3          1           0       -0.759291   -0.905622    0.000000
      4          3           0        0.000007    1.506558    0.000000
 ---------------------------------------------------------------------

 SCF Done:  E(RHF) =  -83.3471464730     A.U. after    1 cycles

 The electronic state is 1-A'.
 Alpha  occ. eigenvalues --  -20.81092  -2.70499  -1.60942  -0.97639  -0.86864
 Alpha  occ. eigenvalues --   -0.76427
 Alpha virt. eigenvalues --   -0.15389  -0.10222  -0.09937  -0.09582  -0.06212
 Alpha virt. eigenvalues --   -0.05098  -0.04837  -0.04519   0.00451   0.01033
 Alpha virt. eigenvalues --    0.01563   0.04135   0.06091   0.06132   0.09451

 Mulliken charges:
               1
     1  O   -0.575869
     2  H    0.355475
     3  H    0.355459
     4  Li   0.864936
 Sum of Mulliken charges =   1.00000

 Dipole moment (field-independent basis, Debye):
    X=             -0.0001    Y=              4.1264    Z=              0.0000  Tot=              4.1264
 Quadrupole moment (field-independent basis, Debye-Ang):
   XX=             -4.1954   YY=              6.8943   ZZ=             -7.8131
   XY=             -0.0001   XZ=              0.0000   YZ=              0.0000

  Exact polarizability:   7.055   0.000   7.103   0.000   0.000   5.779
 Approx polarizability:   5.979   0.000   5.837   0.000   0.000   4.562

                      1                      2                      3
                     A"                     A'                     A'
 Frequencies --    477.8988               560.5649               563.0831
 Red. masses --      1.2308                 6.6576                 1.1939
 Frc consts  --      0.1656                 1.2326                 0.2230
 IR Inten    --    428.1859               111.1338               161.3283
 Raman Activ --      0.2156                 0.1988                 0.1399

                      4                      5                      6
                     A'                     A'                     A'
 Frequencies --   1801.3052              4070.2724              4141.3265
 Red. masses --      1.0829                 1.0460                 1.0836
 Frc consts  --      2.0702                10.2099                10.9493
 IR Inten    --    145.4372               128.1046               270.5172
 Raman Activ --      1.9704                55.1287                19.7347

 - Thermochemistry -
 -------------------
 Temperature   298.150 Kelvin.  Pressure   1.00000 Atm.
 Atom     1 has atomic number  8 and mass  15.99491

 Molecular mass:    25.02657 amu.
 Principal axes and moments of inertia in atomic units:
                           1         2         3
     Eigenvalues --     4.14942  67.73557  71.88499
           X            0.00000   1.00000   0.00000
           Y            1.00000   0.00000   0.00000
           Z            0.00000   0.00000   1.00000
 This molecule is an asymmetric top.
 Rotational symmetry number  1.
 Rotational temperatures (Kelvin)     20.87369     1.27871     1.20489
 Rotational constants (GHZ):         434.93766    26.64392    25.10595
 Zero-point vibrational energy      69469.8 (Joules/Mol)
                                   16.60369 (Kcal/Mol)
 Warning -- explicit consideration of   3 degrees of freedom as
           vibrations may cause significant error
 Vibrational temperatures:    687.59   806.53   810.15  2591.67  5856.21
          (Kelvin)           5958.44

 Zero-point correction=                           0.026460 (Hartree/Particle)
 Thermal correction to Energy=                    0.029899
 Thermal correction to Enthalpy=                  0.030843
 Thermal correction to Gibbs Free Energy=         0.004710
 Sum of electronic and zero-point Energies=            -83.320687
 Sum of electronic and thermal Energies=               -83.317247
 Sum of electronic and thermal Enthalpies=             -83.316303
 Sum of electronic and thermal Free Energies=          -83.342436

                     E (Thermal)             CV                S
                      KCal/Mol        Cal/Mol-Kelvin    Cal/Mol-Kelvin
 Total                   18.762              9.514             55.001
 Electronic               0.000              0.000              0.000
 Translational            0.889              2.981             35.589
 Rotational               0.889              2.981             17.653
 Vibrational             16.984              3.552              1.759
 Vibration     1          0.834              1.299              0.716
 Vibration     2          0.916              1.117              0.523
 Vibration     3          0.919              1.111              0.518

 Optimization completed.
    -- Stationary point found.
 Normal termination of Gaussian 09 at Mon Oct 10 15:04:21 2016.
