 Gaussian 09, Revision D.01,
 Gaussian 09:  ES64L-G09RevD.01 24-Apr-2013

 ------------------------------------------------
 # opt freq mp2(full)/6-311+g** geom=connectivity
 ------------------------------------------------

 -------------------
 Title Card Required
 -------------------
 Symbolic Z-matrix:
 Charge =  0 Multiplicity = 2

 SCF Done:  E(UHF) =  -83.4267470479     A.U. after   16 cycles
 E2 =    -0.2568690947D+00 EUMP2 =    -0.83683616142588D+02
 SCF Done:  E(UHF) =  -83.4743199828     A.U. after   15 cycles
 E2 =    -0.2568665960D+00 EUMP2 =    -0.83731186578771D+02
 SCF Done:  E(UHF) =  -83.4993670760     A.U. after   15 cycles
 E2 =    -0.2578463819D+00 EUMP2 =    -0.83757213457887D+02
 SCF Done:  E(UHF) =  -83.5016809682     A.U. after   13 cycles
 E2 =    -0.2568156060D+00 EUMP2 =    -0.83758496574226D+02
 SCF Done:  E(UHF) =  -83.5021415247     A.U. after   12 cycles
 E2 =    -0.2564851542D+00 EUMP2 =    -0.83758626678918D+02
 SCF Done:  E(UHF) =  -83.5023237317     A.U. after   12 cycles
 E2 =    -0.2563330728D+00 EUMP2 =    -0.83758656804556D+02
 SCF Done:  E(UHF) =  -83.5023531320     A.U. after   12 cycles
 E2 =    -0.2563117429D+00 EUMP2 =    -0.83758664874896D+02
 SCF Done:  E(UHF) =  -83.5023973613     A.U. after   13 cycles
 E2 =    -0.2562920921D+00 EUMP2 =    -0.83758689453452D+02
 SCF Done:  E(UHF) =  -83.5023875115     A.U. after   12 cycles
 E2 =    -0.2563141031D+00 EUMP2 =    -0.83758701614506D+02
 SCF Done:  E(UHF) =  -83.5023646034     A.U. after   12 cycles
 E2 =    -0.2563391436D+00 EUMP2 =    -0.83758703746942D+02
 Optimization completed.
    -- Stationary point found.
 Normal termination of Gaussian 09 at Sun Oct  9 22:30:40 2016.

 ----------------------------------------------------------------------
 #N Geom=AllCheck Guess=TCheck SCRF=Check GenChk UMP2-Full/6-311+G(d,p)
  Freq
 ----------------------------------------------------------------------

 Structure from the checkpoint file:  "Li+OH2mp2.chk"
 -------------------
 Title Card Required
 -------------------
 Charge =  0 Multiplicity = 2

                         Standard orientation:
 ---------------------------------------------------------------------
 Center     Atomic      Atomic             Coordinates (Angstroms)
 Number     Number       Type             X           Y           Z
 ---------------------------------------------------------------------
      1          8           0       -0.000025   -0.351763    0.000000
      2          1           0        0.771390   -0.928266    0.000000
      3          1           0       -0.771118   -0.928694    0.000000
      4          3           0       -0.000025    1.557020    0.000000
 ---------------------------------------------------------------------

 SCF Done:  E(UHF) =  -83.5023646034     A.U. after    1 cycles
 E2 =    -0.2563391437D+00 EUMP2 =    -0.83758703747094D+02
 E2 =    -0.2563391437D+00 EUMP2 =    -0.83758703747094D+02

 The electronic state is 2-A'.
 Alpha  occ. eigenvalues --  -20.64072  -2.44485  -1.42981  -0.79536  -0.68386
 Alpha  occ. eigenvalues --   -0.58800  -0.15784
 Alpha virt. eigenvalues --    0.00296   0.01259   0.01459   0.02705   0.04835
 Alpha virt. eigenvalues --    0.04947   0.05351   0.15286   0.15527   0.16926
 Alpha virt. eigenvalues --    0.17296   0.19851   0.21988   0.23881   0.23958

  Beta  occ. eigenvalues --  -20.64001  -2.43345  -1.42846  -0.79505  -0.68295
  Beta  occ. eigenvalues --   -0.58807
  Beta virt. eigenvalues --    0.00120   0.01706   0.01816   0.02153   0.05055
  Beta virt. eigenvalues --    0.07085   0.07387   0.07577   0.17628   0.17666
  Beta virt. eigenvalues --    0.19684   0.19950   0.20760   0.23909   0.24545

 Mulliken charges and spin densities:
               1          2
     1  O   -0.498831  -0.087219
     2  H    0.297808   0.030434
     3  H    0.297851   0.030418
     4  Li  -0.096827   1.026368
 Sum of Mulliken charges =   0.00000   1.00000

 Dipole moment (field-independent basis, Debye):
    X=             -0.0005    Y=             -5.6403    Z=              0.0000  Tot=              5.6403
 Quadrupole moment (field-independent basis, Debye-Ang):
   XX=            -14.8313   YY=            -24.0629   ZZ=            -18.1040
   XY=             -0.0015   XZ=              0.0000   YZ=              0.0000

  Exact polarizability: 279.321  -0.031 265.391   0.000   0.000 238.261
 Approx polarizability:  87.537  -0.005  75.359   0.000   0.000  80.663

 ******    1 imaginary frequencies (negative Signs) ******

                      1                      2                      3
                     A"                     A'                     A'
 Frequencies --   -182.1489               322.9739               449.4916
 Red. masses --      1.2284                 1.1910                 6.5423
 Frc consts  --      0.0240                 0.0732                 0.7788
 IR Inten    --     18.1457               176.1644                18.1970

                      4                      5                      6
                     A'                     A'                     A'
 Frequencies --   1627.2792              3812.3248              3936.2973
 Red. masses --      1.0864                 1.0456                 1.0826
 Frc consts  --      1.6950                 8.9534                 9.8832
 IR Inten    --    167.1018               432.3736                75.8367

 - Thermochemistry -
 -------------------
 Temperature   298.150 Kelvin.  Pressure   1.00000 Atm.
 Atom     1 has atomic number  8 and mass  15.99491

 Molecular mass:    25.02657 amu.
 Principal axes and moments of inertia in atomic units:
                           1         2         3
     Eigenvalues --     4.28162  72.33816  76.61978
           X            0.00000   1.00000   0.00000
           Y            1.00000   0.00000   0.00000
           Z            0.00000   0.00000   1.00000
 This molecule is an asymmetric top.
 Rotational symmetry number  1.
 Rotational temperatures (Kelvin)     20.22923     1.19735     1.13044
 Rotational constants (GHZ):         421.50924    24.94867    23.55451
    1 imaginary frequencies ignored.
 Zero-point vibrational energy      60700.7 (Joules/Mol)
                                   14.50782 (Kcal/Mol)
 Warning -- explicit consideration of   2 degrees of freedom as
           vibrations may cause significant error
 Vibrational temperatures:    464.69   646.72  2341.29  5485.08  5663.45
          (Kelvin)

 Zero-point correction=                           0.023120 (Hartree/Particle)
 Thermal correction to Energy=                    0.026612
 Thermal correction to Enthalpy=                  0.027556
 Thermal correction to Gibbs Free Energy=         0.000531
 Sum of electronic and zero-point Energies=            -83.735584
 Sum of electronic and thermal Energies=               -83.732092
 Sum of electronic and thermal Enthalpies=             -83.731148
 Sum of electronic and thermal Free Energies=          -83.758173

                     E (Thermal)             CV                S
                      KCal/Mol        Cal/Mol-Kelvin    Cal/Mol-Kelvin
 Total                   16.699              9.001             56.879
 Electronic               0.000              0.000              1.377
 Translational            0.889              2.981             35.589
 Rotational               0.889              2.981             17.813
 Vibrational             14.922              3.039              2.099
 Vibration     1          0.708              1.629              1.295
 Vibration     2          0.808              1.362              0.797

 Optimization completed.
    -- Stationary point found.
 Normal termination of Gaussian 09 at Sun Oct  9 22:30:57 2016.
