 Gaussian 09, Revision D.01,
 Gaussian 09:  ES64L-G09RevD.01 24-Apr-2013

 --------------------------------------------
 # opt freq b3lyp/6-311+g** geom=connectivity
 --------------------------------------------

 -------------------
 Title Card Required
 -------------------
 Symbolic Z-matrix:
 Charge =  0 Multiplicity = 2

 SCF Done:  E(UB3LYP) =  -83.9032216203     A.U. after   12 cycles
 SCF Done:  E(UB3LYP) =  -83.9490353383     A.U. after   11 cycles
 SCF Done:  E(UB3LYP) =  -83.9716278481     A.U. after   11 cycles
 SCF Done:  E(UB3LYP) =  -83.9729861041     A.U. after   10 cycles
 SCF Done:  E(UB3LYP) =  -83.9732204844     A.U. after    9 cycles
 SCF Done:  E(UB3LYP) =  -83.9732501556     A.U. after    8 cycles
 SCF Done:  E(UB3LYP) =  -83.9732747103     A.U. after    9 cycles
 SCF Done:  E(UB3LYP) =  -83.9732807589     A.U. after    8 cycles
 SCF Done:  E(UB3LYP) =  -83.9732949098     A.U. after    9 cycles
 SCF Done:  E(UB3LYP) =  -83.9733021626     A.U. after    9 cycles
 SCF Done:  E(UB3LYP) =  -83.9733042845     A.U. after    8 cycles
 Optimization completed.
    -- Stationary point found.
 Normal termination of Gaussian 09 at Sun Oct  9 22:29:55 2016.

 ----------------------------------------------------------------------
 #N Geom=AllCheck Guess=TCheck SCRF=Check GenChk UB3LYP/6-311+G(d,p) Fr
 eq
 ----------------------------------------------------------------------

 Structure from the checkpoint file:  "Li+OH2b3lyp.chk"
 -------------------
 Title Card Required
 -------------------
 Charge =  0 Multiplicity = 2

                         Standard orientation:
 ---------------------------------------------------------------------
 Center     Atomic      Atomic             Coordinates (Angstroms)
 Number     Number       Type             X           Y           Z
 ---------------------------------------------------------------------
      1          8           0        0.000014   -0.343338    0.000000
      2          1           0        0.783986   -0.916187    0.000000
      3          1           0       -0.784139   -0.915972    0.000000
      4          3           0        0.000014    1.526287    0.000000
 ---------------------------------------------------------------------

 SCF Done:  E(UB3LYP) =  -83.9733042845     A.U. after    1 cycles

 The electronic state is 2-A'.
 Alpha  occ. eigenvalues --  -19.19027  -1.99689  -1.07622  -0.59917  -0.48104
 Alpha  occ. eigenvalues --   -0.38459  -0.10936
 Alpha virt. eigenvalues --   -0.04225  -0.02476  -0.01734   0.00384   0.01144
 Alpha virt. eigenvalues --    0.01168   0.01463   0.05465   0.08101   0.08602
 Alpha virt. eigenvalues --    0.08982   0.10616   0.13212   0.15107   0.15296

  Beta  occ. eigenvalues --  -19.18906  -1.99120  -1.07380  -0.59721  -0.47969
  Beta  occ. eigenvalues --   -0.38311
  Beta virt. eigenvalues --   -0.05781  -0.01685  -0.00731  -0.00317   0.01098
  Beta virt. eigenvalues --    0.01848   0.02210   0.02584   0.06370   0.08886
  Beta virt. eigenvalues --    0.10376   0.10497   0.11635   0.14463   0.15398

 Mulliken charges and spin densities:
               1          2
     1  O   -0.363999  -0.183545
     2  H    0.216770   0.110224
     3  H    0.216740   0.110245
     4  Li  -0.069511   0.963076
 Sum of Mulliken charges =   0.00000   1.00000

 Dipole moment (field-independent basis, Debye):
    X=              0.0003    Y=             -2.9062    Z=              0.0000  Tot=              2.9062
 Quadrupole moment (field-independent basis, Debye-Ang):
   XX=            -15.0906   YY=            -17.6245   ZZ=            -17.7630
   XY=              0.0005   XZ=              0.0000   YZ=              0.0000

  Exact polarizability: 231.414   0.005 277.212  -0.002   0.002 196.719
 Approx polarizability: 187.826   0.010 277.897   0.000   0.000 153.919

 ******    1 imaginary frequencies (negative Signs) ******

                      1                      2                      3
                     A"                     A'                     A'
 Frequencies --    -17.1957               323.3203               483.8974
 Red. masses --      1.2303                 1.1963                 6.5485
 Frc consts  --      0.0002                 0.0737                 0.9034
 IR Inten    --     15.9979               123.4412                31.9064

                      4                      5                      6
                     A'                     A'                     A'
 Frequencies --   1577.6932              3618.6940              3716.9209
 Red. masses --      1.0877                 1.0443                 1.0832
 Frc consts  --      1.5951                 8.0571                 8.8171
 IR Inten    --     74.8415              1781.4645                 2.6419

 - Thermochemistry -
 -------------------
 Temperature   298.150 Kelvin.  Pressure   1.00000 Atm.
 Atom     1 has atomic number  8 and mass  15.99491

 Molecular mass:    25.02657 amu.
 Principal axes and moments of inertia in atomic units:
                           1         2         3
     Eigenvalues --     4.42501  69.51901  73.94401
           X            0.00000   1.00000   0.00000
           Y            1.00000   0.00000   0.00000
           Z            0.00000   0.00000   1.00000
 This molecule is an asymmetric top.
 Rotational symmetry number  1.
 Rotational temperatures (Kelvin)     19.57371     1.24590     1.17134
 Rotational constants (GHZ):         407.85051    25.96040    24.40686
    1 imaginary frequencies ignored.
 Zero-point vibrational energy      58141.7 (Joules/Mol)
                                   13.89619 (Kcal/Mol)
 Warning -- explicit consideration of   2 degrees of freedom as
           vibrations may cause significant error
 Vibrational temperatures:    465.19   696.22  2269.95  5206.49  5347.81
          (Kelvin)

 Zero-point correction=                           0.022145 (Hartree/Particle)
 Thermal correction to Energy=                    0.025609
 Thermal correction to Enthalpy=                  0.026553
 Thermal correction to Gibbs Free Energy=        -0.000405
 Sum of electronic and zero-point Energies=            -83.951159
 Sum of electronic and thermal Energies=               -83.947695
 Sum of electronic and thermal Enthalpies=             -83.946751
 Sum of electronic and thermal Free Energies=          -83.973709

                     E (Thermal)             CV                S
                      KCal/Mol        Cal/Mol-Kelvin    Cal/Mol-Kelvin
 Total                   16.070              8.933             56.739
 Electronic               0.000              0.000              1.377
 Translational            0.889              2.981             35.589
 Rotational               0.889              2.981             17.771
 Vibrational             14.293              2.972              2.001
 Vibration     1          0.708              1.629              1.293
 Vibration     2          0.840              1.286              0.700

 Optimization completed.
    -- Stationary point found.
 Normal termination of Gaussian 09 at Sun Oct  9 22:30:04 2016.
