 Gaussian 09, Revision D.01,
 Gaussian 09:  ES64L-G09RevD.01 24-Apr-2013

 ---------------------------------------
 # opt=(tight) freq b3lyp/6-311++g** gfp
 ---------------------------------------

 -------
 HNC-HCN
 -------
 Symbolic Z-matrix:
 Charge =  0 Multiplicity = 1

 SCF Done:  E(RB3LYP) =  -93.3146478165     A.U. after   10 cycles
 SCF Done:  E(RB3LYP) =  -93.3952313452     A.U. after    8 cycles
 SCF Done:  E(RB3LYP) =  -93.4524024102     A.U. after    9 cycles
 SCF Done:  E(RB3LYP) =  -93.4543618482     A.U. after    8 cycles
 SCF Done:  E(RB3LYP) =  -93.4544800193     A.U. after    8 cycles
 SCF Done:  E(RB3LYP) =  -93.4544800699     A.U. after    8 cycles
 SCF Done:  E(RB3LYP) =  -93.4545041466     A.U. after    7 cycles
 SCF Done:  E(RB3LYP) =  -93.4545043135     A.U. after    6 cycles
 Optimization completed.
    -- Stationary point found.
 Normal termination of Gaussian 09 at Fri Sep 30 11:27:48 2016.

 ----------------------------------------------------------------------
 #N Geom=AllCheck Guess=TCheck SCRF=Check GenChk RB3LYP/6-311++G(d,p) F
 req
 ----------------------------------------------------------------------

 Structure from the checkpoint file:  "hnc-b3lyp-180.chk"
 -------
 HNC-HCN
 -------
 Charge =  0 Multiplicity = 1

                         Standard orientation:
 ---------------------------------------------------------------------
 Center     Atomic      Atomic             Coordinates (Angstroms)
 Number     Number       Type             X           Y           Z
 ---------------------------------------------------------------------
      1          7           0        0.000000    0.000000    0.650768
      2          6           0        0.000000    0.000000   -0.498360
      3          1           0        0.000000    0.000000   -1.565217
 ---------------------------------------------------------------------

 SCF Done:  E(RB3LYP) =  -93.4545043135     A.U. after    1 cycles

 The electronic state is 1-SG.
 Alpha  occ. eigenvalues --  -14.34508 -10.23183  -0.93650  -0.61723  -0.39415
 Alpha  occ. eigenvalues --   -0.37489  -0.37489
 Alpha virt. eigenvalues --   -0.00902  -0.00902  -0.00537   0.02722   0.06839
 Alpha virt. eigenvalues --    0.06839   0.10961   0.11720   0.17885   0.17885
 Alpha virt. eigenvalues --    0.19764   0.24945   0.39464   0.51748   0.51748

 Mulliken charges:
               1
     1  N   -0.239212
     2  C    0.063670
     3  H    0.175542
 Sum of Mulliken charges =   0.00000

 Dipole moment (field-independent basis, Debye):
    X=              0.0000    Y=              0.0000    Z=             -3.0545  Tot=              3.0545
 Quadrupole moment (field-independent basis, Debye-Ang):
   XX=            -11.8408   YY=            -11.8408   ZZ=             -9.9535
   XY=              0.0000   XZ=              0.0000   YZ=              0.0000

  Exact polarizability:  10.450   0.000  10.450   0.000   0.000  22.639
 Approx polarizability:  12.868   0.000  12.868   0.000   0.000  40.599

                      1                      2                      3
                     PI                     PI                     SG
 Frequencies --    766.1033               766.1033              2195.6773
 Red. masses --      1.3439                 1.3439                 5.0549
 Frc consts  --      0.4647                 0.4647                14.3581
 IR Inten    --     42.3843                42.3843                 1.9336

                      4
                     SG
 Frequencies --   3453.0057
 Red. masses --      1.1932
 Frc consts  --      8.3822
 IR Inten    --     67.2520

 - Thermochemistry -
 -------------------
 Temperature   298.150 Kelvin.  Pressure   1.00000 Atm.
 Atom     1 has atomic number  7 and mass  14.00307

 Molecular mass:    27.01090 amu.
 Principal axes and moments of inertia in atomic units:
                           1         2         3
     Eigenvalues --     0.00000  40.31803  40.31803
           X            0.00000   0.00000   1.00000
           Y            0.00000   1.00000   0.00000
           Z            1.00000   0.00000   0.00000
 This molecule is a prolate symmetric top.
 Rotational symmetry number  1.
 Rotational temperature (Kelvin)      2.14826
 Rotational constant (GHZ):          44.762628
 Zero-point vibrational energy      42951.3 (Joules/Mol)
                                   10.26560 (Kcal/Mol)
 Vibrational temperatures:   1102.25  1102.25  3159.09  4968.10
          (Kelvin)

 Zero-point correction=                           0.016359 (Hartree/Particle)
 Thermal correction to Energy=                    0.018898
 Thermal correction to Enthalpy=                  0.019842
 Thermal correction to Gibbs Free Energy=        -0.003003
 Sum of electronic and zero-point Energies=            -93.438145
 Sum of electronic and thermal Energies=               -93.435607
 Sum of electronic and thermal Enthalpies=             -93.434663
 Sum of electronic and thermal Free Energies=          -93.457507

                     E (Thermal)             CV                S
                      KCal/Mol        Cal/Mol-Kelvin    Cal/Mol-Kelvin
 Total                   11.858              6.390             48.080
 Electronic               0.000              0.000              0.000
 Translational            0.889              2.981             35.816
 Rotational               0.592              1.987             11.790
 Vibrational             10.377              1.422              0.474

 Optimization completed.
    -- Stationary point found.
 Normal termination of Gaussian 09 at Fri Sep 30 11:27:52 2016.
