 Gaussian 09, Revision D.01,
 Gaussian 09:  ES64L-G09RevD.01 24-Apr-2013

 ------------------------------------------
 # opt=(tight) freq cisd(fc)/6-311++g** gfp
 ------------------------------------------

 -------
 HNC-HCN
 -------
 Symbolic Z-matrix:
 Charge =  0 Multiplicity = 1

 SCF Done:  E(RHF) =  -92.7649076506     A.U. after   10 cycles
 E2 =    -0.2815772906D+00 EUMP2 =    -0.93046484941262D+02
 SCF Done:  E(RHF) =  -92.8446989036     A.U. after   10 cycles
 E2 =    -0.2892263792D+00 EUMP2 =    -0.93133925282815D+02
 SCF Done:  E(RHF) =  -92.8941474286     A.U. after   11 cycles
 E2 =    -0.3088310237D+00 EUMP2 =    -0.93202978452265D+02
 SCF Done:  E(RHF) =  -92.8991553200     A.U. after    9 cycles
 E2 =    -0.3035598216D+00 EUMP2 =    -0.93202715141597D+02
 SCF Done:  E(RHF) =  -92.8998250107     A.U. after    9 cycles
 E2 =    -0.3023438592D+00 EUMP2 =    -0.93202168869904D+02
 SCF Done:  E(RHF) =  -92.9003021116     A.U. after    9 cycles
 E2 =    -0.3018026657D+00 EUMP2 =    -0.93202104777310D+02
 SCF Done:  E(RHF) =  -92.8999986034     A.U. after    8 cycles
 E2 =    -0.3023448793D+00 EUMP2 =    -0.93202343482731D+02
 SCF Done:  E(RHF) =  -92.9000273737     A.U. after    7 cycles
 E2 =    -0.3022948074D+00 EUMP2 =    -0.93202322181127D+02
 Optimization completed.
    -- Stationary point found.
 Normal termination of Gaussian 09 at Fri Sep 30 11:28:28 2016.

 ----------------------------------------------------------------------
 #N Geom=AllCheck Guess=TCheck SCRF=Check GenChk RCISD(FC)/6-311++G(d,p
 ) Freq
 ----------------------------------------------------------------------

 Structure from the checkpoint file:  "hnc-cisdfc-180.chk"
 -------
 HNC-HCN
 -------
 Charge =  0 Multiplicity = 1

                         Standard orientation:
 ---------------------------------------------------------------------
 Center     Atomic      Atomic             Coordinates (Angstroms)
 Number     Number       Type             X           Y           Z
 ---------------------------------------------------------------------
      1          7           0        0.000000    0.000000    0.651198
      2          6           0        0.000000    0.000000   -0.498999
      3          1           0        0.000000    0.000000   -1.564394
 ---------------------------------------------------------------------

 SCF Done:  E(RHF) =  -92.9000273737     A.U. after    1 cycles
 E2 =    -0.3022948070D+00 EUMP2 =    -0.93202322180788D+02
 SCF Done:  E(RHF) =  -92.9000272914     A.U. after    6 cycles
 E2 =    -0.3022949025D+00 EUMP2 =    -0.93202322193873D+02
 E2 =    -0.3022949025D+00 EUMP2 =    -0.93202322193873D+02
 SCF Done:  E(RHF) =  -92.8999060393     A.U. after    8 cycles
 E2 =    -0.3025010894D+00 EUMP2 =    -0.93202407128634D+02
 SCF Done:  E(RHF) =  -92.9001439070     A.U. after    8 cycles
 E2 =    -0.3020888884D+00 EUMP2 =    -0.93202232795355D+02
 SCF Done:  E(RHF) =  -92.9000271850     A.U. after    7 cycles
 E2 =    -0.3022949305D+00 EUMP2 =    -0.93202322115527D+02
 SCF Done:  E(RHF) =  -92.9000271850     A.U. after    7 cycles
 E2 =    -0.3022949305D+00 EUMP2 =    -0.93202322115527D+02
 SCF Done:  E(RHF) =  -92.9001333079     A.U. after    8 cycles
 E2 =    -0.3021012183D+00 EUMP2 =    -0.93202234526207D+02
 SCF Done:  E(RHF) =  -92.8999150272     A.U. after    8 cycles
 E2 =    -0.3024887543D+00 EUMP2 =    -0.93202403781494D+02
 SCF Done:  E(RHF) =  -92.9000273335     A.U. after    6 cycles
 E2 =    -0.3022948206D+00 EUMP2 =    -0.93202322154033D+02
 SCF Done:  E(RHF) =  -92.9000273335     A.U. after    6 cycles
 E2 =    -0.3022948206D+00 EUMP2 =    -0.93202322154033D+02
 SCF Done:  E(RHF) =  -92.9000364115     A.U. after    7 cycles
 E2 =    -0.3022824817D+00 EUMP2 =    -0.93202318893187D+02
 SCF Done:  E(RHF) =  -92.9000168243     A.U. after    8 cycles
 E2 =    -0.3023071475D+00 EUMP2 =    -0.93202323971822D+02

 Alpha  occ. eigenvalues --  -15.60159 -11.29373  -1.24292  -0.81318  -0.58326
 Alpha  occ. eigenvalues --   -0.49913  -0.49913
 Alpha virt. eigenvalues --    0.03587   0.08724   0.09027   0.09027   0.16815
 Alpha virt. eigenvalues --    0.17546   0.17546   0.20861   0.27691   0.27691
 Alpha virt. eigenvalues --    0.28387   0.33836   0.53569   0.70308   0.70308

 Mulliken charges:
               1
     1  N   -0.219905
     2  C    0.026692
     3  H    0.193213
 Sum of Mulliken charges =   0.00000

 Dipole moment (field-independent basis, Debye):
    X=              0.0000    Y=              0.0000    Z=             -3.0708  Tot=              3.0708
 Quadrupole moment (field-independent basis, Debye-Ang):
   XX=            -11.7904   YY=            -11.7904   ZZ=             -9.9617
   XY=              0.0000   XZ=              0.0000   YZ=              0.0000

                      1                      2                      3
                     PI                     PI                     SG
 Frequencies --    776.8309               776.8309              2228.5256
 Red. masses --      1.3430                 1.3430                 5.1509
 Frc consts  --      0.4775                 0.4775                15.0718
 IR Inten    --     40.6299                40.6299                 2.0542

                      4
                     SG
 Frequencies --   3525.8881
 Red. masses --      1.1880
 Frc consts  --      8.7015
 IR Inten    --     69.7347

 - Thermochemistry -
 -------------------
 Temperature   298.150 Kelvin.  Pressure   1.00000 Atm.
 Atom     1 has atomic number  7 and mass  14.00307

 Molecular mass:    27.01090 amu.
 Principal axes and moments of inertia in atomic units:
                           1         2         3
     Eigenvalues --     0.00000  40.36441  40.36441
           X            0.00000   0.00000   1.00000
           Y            0.00000   1.00000   0.00000
           Z            1.00000   0.00000   0.00000
 This molecule is a prolate symmetric top.
 Rotational symmetry number  1.
 Rotational temperature (Kelvin)      2.14580
 Rotational constant (GHZ):          44.711205
 Zero-point vibrational energy      43712.0 (Joules/Mol)
                                   10.44742 (Kcal/Mol)
 Vibrational temperatures:   1117.69  1117.69  3206.35  5072.96
          (Kelvin)

 Zero-point correction=                           0.016649 (Hartree/Particle)
 Thermal correction to Energy=                    0.019180
 Thermal correction to Enthalpy=                  0.020125
 Thermal correction to Gibbs Free Energy=        -0.002712
 Sum of electronic and zero-point Energies=            -93.169660
 Sum of electronic and thermal Energies=               -93.167129
 Sum of electronic and thermal Enthalpies=             -93.166185
 Sum of electronic and thermal Free Energies=          -93.189021

                     E (Thermal)             CV                S
                      KCal/Mol        Cal/Mol-Kelvin    Cal/Mol-Kelvin
 Total                   12.036              6.352             48.063
 Electronic               0.000              0.000              0.000
 Translational            0.889              2.981             35.816
 Rotational               0.592              1.987             11.792
 Vibrational             10.555              1.384              0.455

 Optimization completed.
    -- Stationary point found.
 Normal termination of Gaussian 09 at Fri Sep 30 11:29:40 2016.
