 Gaussian 09, Revision D.01,
 Gaussian 09:  ES64L-G09RevD.01 24-Apr-2013

 -------------------------
 # opt=(tight) RHF/Gen gfp
 -------------------------

 -------
 HNC-HCN
 -------
 Symbolic Z-matrix:
 Charge =  0 Multiplicity = 1

 SCF Done:  E(RHF) =  -92.7324560781     A.U. after   11 cycles
 SCF Done:  E(RHF) =  -92.8328369500     A.U. after   13 cycles
 SCF Done:  E(RHF) =  -92.8564333173     A.U. after   14 cycles
 SCF Done:  E(RHF) =  -92.8760307703     A.U. after   10 cycles
 SCF Done:  E(RHF) =  -92.8292750664     A.U. after   12 cycles
 SCF Done:  E(RHF) =  -92.8764578804     A.U. after   11 cycles
 SCF Done:  E(RHF) =  -92.8766979862     A.U. after   11 cycles
 SCF Done:  E(RHF) =  -92.8767430192     A.U. after   10 cycles
 SCF Done:  E(RHF) =  -92.8768326273     A.U. after   10 cycles
 SCF Done:  E(RHF) =  -92.8768864463     A.U. after   11 cycles
 SCF Done:  E(RHF) =  -92.8769057832     A.U. after   11 cycles
 SCF Done:  E(RHF) =  -92.8768406284     A.U. after   11 cycles
 SCF Done:  E(RHF) =  -92.8768012099     A.U. after    9 cycles
 SCF Done:  E(RHF) =  -92.8767934647     A.U. after    8 cycles
 SCF Done:  E(RHF) =  -92.8768271966     A.U. after    9 cycles
 SCF Done:  E(RHF) =  -92.8766829510     A.U. after   10 cycles
 SCF Done:  E(RHF) =  -92.8767144602     A.U. after    9 cycles
 SCF Done:  E(RHF) =  -92.8767344074     A.U. after    9 cycles
 SCF Done:  E(RHF) =  -92.8767343981     A.U. after    5 cycles
 SCF Done:  E(RHF) =  -92.8766820580     A.U. after    9 cycles
 Optimization completed on the basis of negligible forces.
    -- Stationary point found.

                         Standard orientation:
 ---------------------------------------------------------------------
 Center     Atomic      Atomic             Coordinates (Angstroms)
 Number     Number       Type             X           Y           Z
 ---------------------------------------------------------------------
      1          7           0       -0.422891    0.000036   -0.000002
      2          6           0        0.725141   -0.000019    0.000003
      3          1           0       -1.390613   -0.000138   -0.000007
 ---------------------------------------------------------------------

 The electronic state is 1-A.
 Alpha  occ. eigenvalues --  -15.61242 -11.30330  -1.28198  -0.89282  -0.53079
 Alpha  occ. eigenvalues --   -0.53079  -0.48817
 Alpha virt. eigenvalues --    0.07260   0.08756   0.08756   0.10483   0.14054
 Alpha virt. eigenvalues --    0.14054   0.16515   0.21955   0.21955   0.35758
 Alpha virt. eigenvalues --    0.41990   0.61209   0.61209   0.85062   0.86314

 Mulliken charges:
               1
     1  N   -0.303794
     2  C    0.014420
     3  H    0.289374
 Sum of Mulliken charges =   0.00000

 Dipole moment (field-independent basis, Debye):
    X=             -2.9256    Y=             -0.0003    Z=              0.0000  Tot=              2.9256
 Quadrupole moment (field-independent basis, Debye-Ang):
   XX=            -10.5196   YY=            -12.0439   ZZ=            -12.0439
   XY=              0.0005   XZ=              0.0001   YZ=              0.0000

 Normal termination of Gaussian 09 at Tue Sep 27 10:08:23 2016.
