 Gaussian 09, Revision D.01,
 Gaussian 09:  ES64L-G09RevD.01 24-Apr-2013

 -----------------------------------------------------------------
 # irc=(maxpoints=33,maxcycle=50,report,calcfc) rhf/6-311++g** gfp
 -----------------------------------------------------------------

 -------
 HNC-HCN
 -------
 Symbolic Z-matrix:
 Charge =  0 Multiplicity = 1

 SCF Done:  E(RHF) =  -92.8226940769     A.U. after   13 cycles
 SCF Done:  E(RHF) =  -92.8230069739     A.U. after   12 cycles
 SCF Done:  E(RHF) =  -92.8239309804     A.U. after   12 cycles
 SCF Done:  E(RHF) =  -92.8254241799     A.U. after   11 cycles
 SCF Done:  E(RHF) =  -92.8274117645     A.U. after   12 cycles
 SCF Done:  E(RHF) =  -92.8297908825     A.U. after   12 cycles
 SCF Done:  E(RHF) =  -92.8324344337     A.U. after   12 cycles
 SCF Done:  E(RHF) =  -92.8352031401     A.U. after   11 cycles
 SCF Done:  E(RHF) =  -92.8379665851     A.U. after   11 cycles
 SCF Done:  E(RHF) =  -92.8406286906     A.U. after   11 cycles
 SCF Done:  E(RHF) =  -92.8869676903     A.U. after   11 cycles
 SCF Done:  E(RHF) =  -92.8898136551     A.U. after   11 cycles
 SCF Done:  E(RHF) =  -92.8923761313     A.U. after   11 cycles
 SCF Done:  E(RHF) =  -92.8946406204     A.U. after   11 cycles
 SCF Done:  E(RHF) =  -92.8965950776     A.U. after   11 cycles
 SCF Done:  E(RHF) =  -92.8982296471     A.U. after   11 cycles
 SCF Done:  E(RHF) =  -92.8995364536     A.U. after   11 cycles
 SCF Done:  E(RHF) =  -92.9005093404     A.U. after   11 cycles
 SCF Done:  E(RHF) =  -92.9011435687     A.U. after   11 cycles
 SCF Done:  E(RHF) =  -92.9014354020     A.U. after   11 cycles

                          Input orientation:
 ---------------------------------------------------------------------
 Center     Atomic      Atomic             Coordinates (Angstroms)
 Number     Number       Type             X           Y           Z
 ---------------------------------------------------------------------
      1          7           0       -0.144847    0.000000   -0.561248
      2          6           0        0.130139    0.000000    0.532384
      3          1           0        0.414110    0.000000    1.555138
 ---------------------------------------------------------------------

 Alpha  occ. eigenvalues --  -15.59353 -11.28524  -1.25360  -0.81162  -0.58206
 Alpha  occ. eigenvalues --   -0.50615  -0.50614
 Alpha virt. eigenvalues --    0.03606   0.08741   0.09092   0.09093   0.16770
 Alpha virt. eigenvalues --    0.18022   0.18024   0.20948   0.28043   0.28049
 Alpha virt. eigenvalues --    0.28687   0.33955   0.53934   0.70375   0.70376

 Mulliken charges:
               1
     1  N   -0.261534
     2  C    0.051152
     3  H    0.210382
 Sum of Mulliken charges =   0.00000

 Dipole moment (field-independent basis, Debye):
    X=              0.8327    Y=              0.0000    Z=              3.1713  Tot=              3.2788
 Quadrupole moment (field-independent basis, Debye-Ang):
   XX=            -11.6839   YY=            -11.8508   ZZ=             -9.5437
   XY=              0.0000   XZ=              0.6203   YZ=              0.0000

  Exact polarizability:   0.000   0.000   0.000   0.000   0.000   0.000
 Approx polarizability:   9.190   0.000   8.420   3.085   0.000  20.808

 Normal termination of Gaussian 09 at Tue Sep 27 20:02:28 2016.
