 Gaussian 09, Revision D.01,
 Gaussian 09:  ES64L-G09RevD.01 24-Apr-2013

 ----------------------------------------------------------------------
 # irc=(maxpoints=31,maxcycle=50,report,calcfc) rhf/6-31g(d) geom=conne
 ctivity gfp
 ----------------------------------------------------------------------

 -------
 HNC-HCN
 -------
 Symbolic Z-matrix:
 Charge =  0 Multiplicity = 1

 SCF Done:  E(RHF) =  -92.7919534189     A.U. after   13 cycles
 SCF Done:  E(RHF) =  -92.7922835738     A.U. after   12 cycles
 SCF Done:  E(RHF) =  -92.7932488748     A.U. after   12 cycles
 SCF Done:  E(RHF) =  -92.7947897845     A.U. after   12 cycles
 SCF Done:  E(RHF) =  -92.7968114898     A.U. after   12 cycles
 SCF Done:  E(RHF) =  -92.7991916012     A.U. after   12 cycles
 SCF Done:  E(RHF) =  -92.8017886960     A.U. after   11 cycles
 SCF Done:  E(RHF) =  -92.8044602387     A.U. after   11 cycles
 SCF Done:  E(RHF) =  -92.8070881228     A.U. after   11 cycles
 SCF Done:  E(RHF) =  -92.8096022568     A.U. after   11 cycles
 SCF Done:  E(RHF) =  -92.8592581726     A.U. after   12 cycles
 SCF Done:  E(RHF) =  -92.8622307621     A.U. after   12 cycles
 SCF Done:  E(RHF) =  -92.8649264759     A.U. after   12 cycles
 SCF Done:  E(RHF) =  -92.8673318375     A.U. after   11 cycles
 SCF Done:  E(RHF) =  -92.8694349535     A.U. after   11 cycles
 SCF Done:  E(RHF) =  -92.8712251333     A.U. after   11 cycles
 SCF Done:  E(RHF) =  -92.8726926625     A.U. after   11 cycles
 SCF Done:  E(RHF) =  -92.8738286942     A.U. after   11 cycles
 SCF Done:  E(RHF) =  -92.8746253636     A.U. after   11 cycles
 SCF Done:  E(RHF) =  -92.8750760845     A.U. after   11 cycles

                          Input orientation:
 ---------------------------------------------------------------------
 Center     Atomic      Atomic             Coordinates (Angstroms)
 Number     Number       Type             X           Y           Z
 ---------------------------------------------------------------------
      1          7           0        0.143813   -0.565059    0.000000
      2          6           0       -0.128530    0.534791    0.000000
      3          1           0       -0.436050    1.551138    0.000000
 ---------------------------------------------------------------------

 Alpha  occ. eigenvalues --  -15.59723 -11.28876  -1.24260  -0.80717  -0.57377
 Alpha  occ. eigenvalues --   -0.49688  -0.49684
 Alpha virt. eigenvalues --    0.20240   0.20420   0.23401   0.42271   0.73709
 Alpha virt. eigenvalues --    0.73709   0.83338   0.90681   1.03863   1.04154
 Alpha virt. eigenvalues --    1.05045   1.45726   1.67619   1.76922   1.76924

 Mulliken charges:
               1
     1  N   -0.377610
     2  C    0.064913
     3  H    0.312697
 Sum of Mulliken charges =   0.00000

 Dipole moment (field-independent basis, Debye):
    X=             -0.8392    Y=              3.0991    Z=              0.0000  Tot=              3.2107
 Quadrupole moment (field-independent basis, Debye-Ang):
   XX=            -11.3821   YY=             -9.3359   ZZ=            -11.5718
   XY=             -0.6507   XZ=              0.0000   YZ=              0.0000

  Exact polarizability:   0.000   0.000   0.000   0.000   0.000   0.000
 Approx polarizability:   7.618  -3.146  19.715   0.000   0.000   6.836

 Normal termination of Gaussian 09 at Tue Sep 27 20:11:22 2016.
