 Gaussian 09, Revision D.01,
 Gaussian 09:  ES64L-G09RevD.01 24-Apr-2013

 -----------------------------------
 # opt=(calcfc,ts,tight) RHF/Gen gfp
 -----------------------------------

 -------
 HNC-HCN
 -------
 Symbolic Z-matrix:
 Charge =  0 Multiplicity = 1

 SCF Done:  E(RHF) =  -92.7169394921     A.U. after   12 cycles

  Exact polarizability:   0.000   0.000   0.000   0.000   0.000   0.000
 Approx polarizability:  12.014   0.354  15.199   0.000   0.000   9.267

 SCF Done:  E(RHF) =  -92.8014192254     A.U. after   13 cycles
 SCF Done:  E(RHF) =  -92.8115915653     A.U. after   12 cycles
 SCF Done:  E(RHF) =  -92.8134027542     A.U. after   11 cycles
 SCF Done:  E(RHF) =  -92.8134755653     A.U. after   11 cycles
 SCF Done:  E(RHF) =  -92.8134762694     A.U. after    9 cycles
 SCF Done:  E(RHF) =  -92.8134762725     A.U. after    7 cycles
 Optimization completed.
    -- Stationary point found.

                         Standard orientation:
 ---------------------------------------------------------------------
 Center     Atomic      Atomic             Coordinates (Angstroms)
 Number     Number       Type             X           Y           Z
 ---------------------------------------------------------------------
      1          7           0        0.080778   -0.569820    0.000000
      2          6           0        0.080778    0.602677    0.000000
      3          1           0       -1.050118    0.372683    0.000000
 ---------------------------------------------------------------------

 The electronic state is 1-A'.
 Alpha  occ. eigenvalues --  -15.66457 -11.30277  -1.30991  -0.71909  -0.62340
 Alpha  occ. eigenvalues --   -0.53663  -0.49563
 Alpha virt. eigenvalues --    0.06352   0.07769   0.08472   0.09516   0.10472
 Alpha virt. eigenvalues --    0.14803   0.15926   0.18650   0.20763   0.30910
 Alpha virt. eigenvalues --    0.41521   0.54118   0.59159   0.69665   0.85497

 Mulliken charges:
               1
     1  N   -0.084478
     2  C   -0.103938
     3  H    0.188416
 Sum of Mulliken charges =   0.00000

 Dipole moment (field-independent basis, Debye):
    X=             -1.4867    Y=              0.2007    Z=              0.0000  Tot=              1.5002
 Quadrupole moment (field-independent basis, Debye-Ang):
   XX=             -9.8408   YY=            -14.5516   ZZ=            -12.2720
   XY=             -0.6980   XZ=              0.0000   YZ=              0.0000

 Normal termination of Gaussian 09 at Tue Sep 27 10:28:38 2016.
