 Gaussian 09, Revision D.01,
 Gaussian 09:  ES64L-G09RevD.01 24-Apr-2013

 ----------------------
 # g4 geom=connectivity
 ----------------------

 -------------------
 Title Card Required
 -------------------
 Symbolic Z-matrix:
 Charge =  1 Multiplicity = 1

 SCF Done:  E(RB3LYP) =  -39.4848187351     A.U. after    8 cycles
 SCF Done:  E(RB3LYP) =  -39.4848564969     A.U. after    6 cycles
 SCF Done:  E(RB3LYP) =  -39.4847806298     A.U. after    7 cycles
 SCF Done:  E(RB3LYP) =  -39.4848565988     A.U. after    5 cycles
 Optimization completed.
    -- Stationary point found.

 1\1\GINC-TC-NODE158\FOpt\RB3LYP\GTBas3\C1H3(1+)\RJW7C5\21-Oct-2016\0\\
 # g4 geom=connectivity\\Title Card Required\\1,1\C,-1.67721522,1.58227
 85711,0.0000223455\H,-1.6772152202,2.6776314287,0.0000135515\H,-2.6258
 186207,1.0346021421,0.0000135515\H,-0.7286118191,1.0346021425,0.000013
 5515\\Version=ES64L-G09RevD.01\HF=-39.4848566\RMSD=4.894e-10\RMSF=3.19
 1e-05\Dipole=0.,0.,-0.0000005\Quadrupole=0.264054,0.264054,-0.5281079,
 0.,0.,0.\PG=C03V [C3(C1),3SGV(H1)]\\@

 Normal termination of Gaussian 09 at Fri Oct 21 12:07:31 2016.

 ----------------------------------------------------------
 #N Geom=AllCheck Guess=TCheck SCRF=Check B3LYP/GTBas3 Freq
 ----------------------------------------------------------

 Structure from the checkpoint file:  "/home/rjw7c5/ch3_g4_gas.chk"
 -------------------
 Title Card Required
 -------------------
 Charge =  1 Multiplicity = 1

 SCF Done:  E(RB3LYP) =  -39.4848565988     A.U. after    1 cycles

  Exact polarizability:   9.511   0.000   9.511   0.000   0.000   5.590
 Approx polarizability:  11.256   0.000  11.256   0.000   0.000   7.940

                      1                      2                      3
                     ?A                     ?A                     A1
 Frequencies --   1403.0626              1403.0638              1420.6216
 Red. masses --      1.0980                 1.0980                 1.2356
 Frc consts  --      1.2735                 1.2735                 1.4692
 IR Inten    --     18.5263                18.5232                10.6074

                      4                      5                      6
                     ?B                     ?A                     ?A
 Frequencies --   3026.7567              3225.0345              3225.0347
 Red. masses --      1.0078                 1.1226                 1.1226
 Frc consts  --      5.4399                 6.8794                 6.8794
 IR Inten    --      0.0000                75.2228                75.2265

 - Thermochemistry -
 -------------------
 Temperature   298.150 Kelvin.  Pressure   1.00000 Atm.
 Atom     1 has atomic number  6 and mass  12.00000

 Molecular mass:    15.02348 amu.
 Principal axes and moments of inertia in atomic units:
                           1         2         3
     Eigenvalues --     6.47712   6.47712  12.95425
           X           -0.06880   0.99763   0.00000
           Y            0.99763   0.06880   0.00000
           Z            0.00000   0.00000   1.00000
 This molecule is an oblate symmetric top.
 Rotational symmetry number  3.
 Rotational temperatures (Kelvin)     13.37226    13.37226     6.68613
 Rotational constants (GHZ):         278.63310   278.63310   139.31655
 Zero-point vibrational energy      81965.6 (Joules/Mol)
                                   19.59024 (Kcal/Mol)
 Vibrational temperatures:   2018.69  2018.69  2043.96  4354.82  4640.10
          (Kelvin)           4640.10

 Zero-point correction=                           0.031219 (Hartree/Particle)
 Thermal correction to Energy=                    0.034073
 Thermal correction to Enthalpy=                  0.035017
 Thermal correction to Gibbs Free Energy=         0.013163
 Sum of electronic and zero-point Energies=            -39.453638
 Sum of electronic and thermal Energies=               -39.450783
 Sum of electronic and thermal Enthalpies=             -39.449839
 Sum of electronic and thermal Free Energies=          -39.471694

                     E (Thermal)             CV                S
                      KCal/Mol        Cal/Mol-Kelvin    Cal/Mol-Kelvin
 Total                   21.381              6.270             45.997
 Electronic               0.000              0.000              0.000
 Translational            0.889              2.981             34.068
 Rotational               0.889              2.981             11.877
 Vibrational             19.604              0.308              0.052

 Optimization completed.
    -- Stationary point found.

 1\1\GINC-TC-NODE158\Freq\RB3LYP\GTBas3\C1H3(1+)\RJW7C5\21-Oct-2016\0\\
 #N Geom=AllCheck Guess=TCheck SCRF=Check B3LYP/GTBas3 Freq\\Title Card
  Required\\1,1\C,-1.67721522,1.5822785711,0.0000223455\H,-1.6772152202
 ,2.6776314287,0.0000135515\H,-2.6258186207,1.0346021421,0.0000135515\H
 ,-0.7286118191,1.0346021425,0.0000135515\\Version=ES64L-G09RevD.01\HF=
 -39.4848566\RMSD=9.095e-19\RMSF=3.191e-05\ZeroPoint=0.031219\Thermal=0
 .0340731\Dipole=0.,0.,-0.0000005\DipoleDeriv=0.3343127,0.,0.,0.,0.3342
 803,0.,0.,0.,0.6366556,0.1739586,0.,0.,0.,0.2698416,-0.0000033,0.,-0.0

 Normal termination of Gaussian 09 at Fri Oct 21 12:07:38 2016.

 -----------------------------------------------------------------
 #N Geom=AllCheck Guess=TCheck SCRF=Check CCSD(T,E4T,FrzG4)/GTBas1
 -----------------------------------------------------------------

 Structure from the checkpoint file:  "/home/rjw7c5/ch3_g4_gas.chk"
 -------------------
 Title Card Required
 -------------------
 Charge =  1 Multiplicity = 1

 SCF Done:  E(RHF) =  -39.2300314933     A.U. after    7 cycles
 E2 =    -0.9526381445D-01 EUMP2 =    -0.39325295307740D+02
 CCSD(T)= -0.39347484307D+02

 1\1\GINC-TC-NODE158\SP\RCCSD(T)\GTBas1\C1H3(1+)\RJW7C5\21-Oct-2016\0\\
 #N Geom=AllCheck Guess=TCheck SCRF=Check CCSD(T,E4T,FrzG4)/GTBas1\\Tit
 le Card Required\\1,1\C,0,-1.67721522,1.5822785711,0.0000223455\H,0,-1
 .6772152202,2.6776314287,0.0000135515\H,0,-2.6258186207,1.0346021421,0
 .0000135515\H,0,-0.7286118191,1.0346021425,0.0000135515\\Version=ES64L
 -G09RevD.01\HF=-39.2300315\MP2=-39.3252953\MP3=-39.3418969\MP4D=-39.34
 59024\MP4DQ=-39.3446933\MP4SDTQ=-39.3462016\MP4SDQ=-39.3450529\CCSD=-3
 9.3458782\CCSD(T)=-39.3474843\RMSD=7.139e-09\PG=C03V [C3(C1),3SGV(H1)]
 Normal termination of Gaussian 09 at Fri Oct 21 12:07:41 2016.

 Structure from the checkpoint file:  "/home/rjw7c5/ch3_g4_gas.chk"
 -------------------
 Title Card Required
 -------------------
 Charge =  1 Multiplicity = 1

 SCF Done:  E(RHF) =  -39.2302885923     A.U. after    7 cycles
 E2 =    -0.9541146038D-01 EUMP2 =    -0.39325700052635D+02
 Normal termination of Gaussian 09 at Fri Oct 21 12:07:44 2016.

 Structure from the checkpoint file:  "/home/rjw7c5/ch3_g4_gas.chk"
 -------------------
 Title Card Required
 -------------------
 Charge =  1 Multiplicity = 1

 SCF Done:  E(RHF) =  -39.2382139037     A.U. after    7 cycles
 E2 =    -0.1219594442D+00 EUMP2 =    -0.39360173347902D+02
 Normal termination of Gaussian 09 at Fri Oct 21 12:07:47 2016.

 Structure from the checkpoint file:  "/home/rjw7c5/ch3_g4_gas.chk"
 -------------------
 Title Card Required
 -------------------
 Charge =  1 Multiplicity = 1

 SCF Done:  E(RHF) =  -39.2462144688     A.U. after    8 cycles
 E2 =    -0.1716668137D+00 EUMP2 =    -0.39417881282493D+02
 Normal termination of Gaussian 09 at Fri Oct 21 12:07:51 2016.
 SCF Done:  E(RHF) =  -39.2495399053     A.U. after    7 cycles
 Normal termination of Gaussian 09 at Fri Oct 21 12:07:54 2016.

                         Standard orientation:
 ---------------------------------------------------------------------
 Center     Atomic      Atomic             Coordinates (Angstroms)
 Number     Number       Type             X           Y           Z
 ---------------------------------------------------------------------
      1          6           0        0.000000    0.000000   -0.000003
      2          1           0        0.000000    1.095353    0.000006
      3          1           0        0.948603   -0.547676    0.000006
      4          1           0       -0.948603   -0.547676    0.000006
 ---------------------------------------------------------------------

 SCF Done:  E(RHF) =  -39.2502977073     A.U. after    6 cycles

 Unable to determine electronic state:  an orbital has unidentified symmetry.
 Alpha  occ. eigenvalues --  -11.68287  -1.27329  -0.94772  -0.94772
 Alpha virt. eigenvalues --   -0.28402  -0.12544  -0.08744  -0.08744  -0.07305
 Alpha virt. eigenvalues --   -0.02561  -0.02561  -0.00922   0.06452   0.06452
 Alpha virt. eigenvalues --    0.11031   0.12820   0.19382   0.19382   0.21181

 Mulliken charges:
               1
     1  C   -0.005023
     2  H    0.335008
     3  H    0.335008
     4  H    0.335008
 Sum of Mulliken charges =   1.00000

 Dipole moment (field-independent basis, Debye):
    X=              0.0000    Y=              0.0000    Z=              0.0000  Tot=              0.0000
 Quadrupole moment (field-independent basis, Debye-Ang):
   XX=             -4.0312   YY=             -4.0312   ZZ=             -5.0213
   XY=              0.0000   XZ=              0.0000   YZ=              0.0000

 Normal termination of Gaussian 09 at Fri Oct 21 12:08:03 2016.
