 Gaussian 09, Revision D.01,
 Gaussian 09:  ES64L-G09RevD.01 24-Apr-2013

 -----------------------------
 # opt freq mp2(full)/6-311g**
 -----------------------------

 -------------------
 Title Card Required
 -------------------
 Symbolic Z-matrix:
 Charge =  1 Multiplicity = 1

 SCF Done:  E(RHF) =  -39.1926200258     A.U. after    8 cycles
 E2 =    -0.1328625549D+00 EUMP2 =    -0.39325482580746D+02
 SCF Done:  E(RHF) =  -39.2276475639     A.U. after    8 cycles
 E2 =    -0.1312590946D+00 EUMP2 =    -0.39358906658423D+02
 SCF Done:  E(RHF) =  -39.2426867865     A.U. after    8 cycles
 E2 =    -0.1309904410D+00 EUMP2 =    -0.39373677227412D+02
 SCF Done:  E(RHF) =  -39.2434742439     A.U. after    7 cycles
 E2 =    -0.1308426996D+00 EUMP2 =    -0.39374316943475D+02
 SCF Done:  E(RHF) =  -39.2435029832     A.U. after    6 cycles
 E2 =    -0.1308193395D+00 EUMP2 =    -0.39374322322603D+02
 Optimization completed.
    -- Stationary point found.
 Normal termination of Gaussian 09 at Tue Oct 25 11:34:11 2016.

 ----------------------------------------------------------------------
 #N Geom=AllCheck Guess=TCheck SCRF=Check GenChk RMP2-Full/6-311G(d,p)
 Freq
 ----------------------------------------------------------------------

 Structure from the checkpoint file:  "CH3popt.chk"
 -------------------
 Title Card Required
 -------------------
 Charge =  1 Multiplicity = 1

                         Standard orientation:
 ---------------------------------------------------------------------
 Center     Atomic      Atomic             Coordinates (Angstroms)
 Number     Number       Type             X           Y           Z
 ---------------------------------------------------------------------
      1          6           0        0.000000    0.000000   -0.000007
      2          1           0        0.000000    1.090779    0.000014
      3          1           0        0.944642   -0.545389    0.000014
      4          1           0       -0.944642   -0.545389    0.000014
 ---------------------------------------------------------------------

 SCF Done:  E(RHF) =  -39.2435029832     A.U. after    1 cycles
 E2 =    -0.1308193396D+00 EUMP2 =    -0.39374322322797D+02
 E2 =    -0.1308193396D+00 EUMP2 =    -0.39374322322797D+02

 Unable to determine electronic state:  an orbital has unidentified symmetry.
 Alpha  occ. eigenvalues --  -11.68297  -1.27586  -0.94977  -0.94977
 Alpha virt. eigenvalues --   -0.28139  -0.08151  -0.01494  -0.01494   0.15006
 Alpha virt. eigenvalues --    0.15006   0.21926   0.31315   0.47715   0.47715
 Alpha virt. eigenvalues --    0.55875   0.93558   0.93558   1.28814   1.28814

 Mulliken charges:
               1
     1  C    0.200693
     2  H    0.266436
     3  H    0.266436
     4  H    0.266436
 Sum of Mulliken charges =   1.00000

 Dipole moment (field-independent basis, Debye):
    X=              0.0000    Y=              0.0000    Z=              0.0000  Tot=              0.0000
 Quadrupole moment (field-independent basis, Debye-Ang):
   XX=             -4.0889   YY=             -4.0889   ZZ=             -4.9966
   XY=              0.0000   XZ=              0.0000   YZ=              0.0000

  Exact polarizability:   9.282   0.000   9.282   0.000   0.000   4.906
 Approx polarizability:   7.357   0.000   7.357   0.000   0.000   4.568

                      1                      2                      3
                     A1                     ?A                     ?A
 Frequencies --   1447.5202              1452.0461              1452.0461
 Red. masses --      1.2356                 1.0973                 1.0973
 Frc consts  --      1.5254                 1.3631                 1.3631
 IR Inten    --      8.5893                16.9232                16.9232

                      4                      5                      6
                     ?B                     ?A                     ?A
 Frequencies --   3098.7769              3307.9024              3307.9024
 Red. masses --      1.0078                 1.1233                 1.1233
 Frc consts  --      5.7019                 7.2420                 7.2420
 IR Inten    --      0.0000                71.1983                71.1983

 - Thermochemistry -
 -------------------
 Temperature   298.150 Kelvin.  Pressure   1.00000 Atm.
 Atom     1 has atomic number  6 and mass  12.00000

 Molecular mass:    15.02348 amu.
 Principal axes and moments of inertia in atomic units:
                           1         2         3
     Eigenvalues --     6.42314   6.42314  12.84628
           X            0.54117   0.84091   0.00000
           Y            0.84091  -0.54117   0.00000
           Z            0.00000   0.00000   1.00000
 This molecule is an oblate symmetric top.
 Rotational symmetry number  3.
 Rotational temperatures (Kelvin)     13.48466    13.48466     6.74233
 Rotational constants (GHZ):         280.97496   280.97496   140.48748
 Zero-point vibrational energy      84134.5 (Joules/Mol)
                                   20.10863 (Kcal/Mol)
 Vibrational temperatures:   2082.66  2089.17  2089.17  4458.44  4759.33
          (Kelvin)           4759.33

 Zero-point correction=                           0.032045 (Hartree/Particle)
 Thermal correction to Energy=                    0.034896
 Thermal correction to Enthalpy=                  0.035840
 Thermal correction to Gibbs Free Energy=         0.014001
 Sum of electronic and zero-point Energies=            -39.342277
 Sum of electronic and thermal Energies=               -39.339427
 Sum of electronic and thermal Enthalpies=             -39.338482
 Sum of electronic and thermal Free Energies=          -39.360321

                     E (Thermal)             CV                S
                      KCal/Mol        Cal/Mol-Kelvin    Cal/Mol-Kelvin
 Total                   21.897              6.229             45.964
 Electronic               0.000              0.000              0.000
 Translational            0.889              2.981             34.068
 Rotational               0.889              2.981             11.852
 Vibrational             20.120              0.267              0.044

 Optimization completed.
    -- Stationary point found.
 Normal termination of Gaussian 09 at Tue Oct 25 11:34:17 2016.
