 Gaussian 09, Revision D.01,
 Gaussian 09:  ES64L-G09RevD.01 24-Apr-2013

 --------------------------------------------------------------------
 # opt freq mp2(full)/6-311g** scrf=(smd,solvent=water) geom=allcheck
 --------------------------------------------------------------------

 Structure from the checkpoint file:  "CH3psmd.chk"
 -------------------
 Title Card Required
 -------------------
 Charge =  1 Multiplicity = 1

 SCF Done:  E(RHF) =  -39.3743765226     A.U. after    8 cycles
 E2 =    -0.1308857654D+00 EUMP2 =    -0.39505262287932D+02
 SCF Done:  E(RHF) =  -39.3746078723     A.U. after    7 cycles
 E2 =    -0.1306991170D+00 EUMP2 =    -0.39505306989336D+02
 SCF Done:  E(RHF) =  -39.3745296126     A.U. after    8 cycles
 E2 =    -0.1307059933D+00 EUMP2 =    -0.39505235605976D+02
 SCF Done:  E(RHF) =  -39.3746078820     A.U. after    2 cycles
 E2 =    -0.1306992195D+00 EUMP2 =    -0.39505307101538D+02
 Optimization completed.
    -- Stationary point found.
 Normal termination of Gaussian 09 at Tue Oct 25 12:09:13 2016.

 ----------------------------------------------------------------------
 #N Geom=AllCheck Guess=TCheck SCRF=Check GenChk RMP2-Full/6-311G(d,p)
 Freq
 ----------------------------------------------------------------------

 Structure from the checkpoint file:  "CH3psmd.chk"
 -------------------
 Title Card Required
 -------------------
 Charge =  1 Multiplicity = 1

                         Standard orientation:
 ---------------------------------------------------------------------
 Center     Atomic      Atomic             Coordinates (Angstroms)
 Number     Number       Type             X           Y           Z
 ---------------------------------------------------------------------
      1          6           0        0.000029    0.000000   -0.000004
      2          1           0        1.086040    0.000010    0.000008
      3          1           0       -0.543099   -0.939904    0.000008
      4          1           0       -0.543117    0.939893    0.000008
 ---------------------------------------------------------------------

 SCF Done:  E(RHF) =  -39.3746078820     A.U. after    1 cycles
 E2 =    -0.1306992194D+00 EUMP2 =    -0.39505307101473D+02
 E2 =    -0.1306992194D+00 EUMP2 =    -0.39505307101473D+02

 The electronic state is 1-A.
 Alpha  occ. eigenvalues --  -11.41421  -1.00875  -0.68294  -0.68290
 Alpha virt. eigenvalues --   -0.01299   0.15434   0.21496   0.21506   0.40987
 Alpha virt. eigenvalues --    0.41007   0.48574   0.57617   0.72952   0.72961
 Alpha virt. eigenvalues --    0.81258   1.20597   1.20617   1.55455   1.55486

 Mulliken charges:
               1
     1  C    0.224014
     2  H    0.258573
     3  H    0.258707
     4  H    0.258707
 Sum of Mulliken charges =   1.00000

 Dipole moment (field-independent basis, Debye):
    X=             -0.0013    Y=              0.0000    Z=              0.0000  Tot=              0.0013
 Quadrupole moment (field-independent basis, Debye-Ang):
   XX=             -4.1685   YY=             -4.1734   ZZ=             -5.0073
   XY=              0.0000   XZ=              0.0000   YZ=              0.0000

  Exact polarizability:  11.239   0.000  11.229   0.000   0.000   5.476
 Approx polarizability:   7.427   0.000   7.421   0.000   0.000   4.551

                      1                      2                      3
                      A                      A                      A
 Frequencies --   1436.3325              1436.8578              1448.4014
 Red. masses --      1.0971                 1.0978                 1.2356
 Frc consts  --      1.3336                 1.3354                 1.5272
 IR Inten    --     22.1669                21.9597                 9.4189

                      4                      5                      6
                      A                      A                      A
 Frequencies --   3156.0050              3370.7105              3374.2968
 Red. masses --      1.0078                 1.1235                 1.1228
 Frc consts  --      5.9145                 7.5209                 7.5319
 IR Inten    --      0.0027                60.5184                62.5090

 - Thermochemistry -
 -------------------
 Temperature   298.150 Kelvin.  Pressure   1.00000 Atm.
 Atom     1 has atomic number  6 and mass  12.00000

 Molecular mass:    15.02348 amu.
 Principal axes and moments of inertia in atomic units:
                           1         2         3
     Eigenvalues --     6.35879   6.36814  12.72693
           X            1.00000   0.00000   0.00000
           Y            0.00000   1.00000   0.00000
           Z            0.00000   0.00000   1.00000
 This molecule is an asymmetric top.
 Rotational symmetry number  1.
 Rotational temperatures (Kelvin)     13.62111    13.60112     6.80555
 Rotational constants (GHZ):         283.81816   283.40165   141.80487
 Zero-point vibrational energy      85070.1 (Joules/Mol)
                                   20.33223 (Kcal/Mol)
 Vibrational temperatures:   2066.56  2067.32  2083.92  4540.78  4849.69
          (Kelvin)           4854.85

 Zero-point correction=                           0.032401 (Hartree/Particle)
 Thermal correction to Energy=                    0.035253
 Thermal correction to Enthalpy=                  0.036197
 Thermal correction to Gibbs Free Energy=         0.013333
 Sum of electronic and zero-point Energies=            -39.472906
 Sum of electronic and thermal Energies=               -39.470054
 Sum of electronic and thermal Enthalpies=             -39.469110
 Sum of electronic and thermal Free Energies=          -39.491974

                     E (Thermal)             CV                S
                      KCal/Mol        Cal/Mol-Kelvin    Cal/Mol-Kelvin
 Total                   22.122              6.238             48.121
 Electronic               0.000              0.000              0.000
 Translational            0.889              2.981             34.068
 Rotational               0.889              2.981             14.008
 Vibrational             20.344              0.277              0.045

 Optimization completed.
    -- Stationary point found.
 Normal termination of Gaussian 09 at Tue Oct 25 12:09:21 2016.
