 Gaussian 09, Revision D.01,
 Gaussian 09:  ES64L-G09RevD.01 24-Apr-2013

 ----------------------
 # cbs-4m geom=allcheck
 ----------------------

 Structure from the checkpoint file:  "CH3pcbs4m.chk"
 -------------------
 Title Card Required
 -------------------
 Charge =  1 Multiplicity = 1

 SCF Done:  E(RHF) =  -39.0087749342     A.U. after    7 cycles
 SCF Done:  E(RHF) =  -39.0091273506     A.U. after    7 cycles
 SCF Done:  E(RHF) =  -39.0090758520     A.U. after    6 cycles
 SCF Done:  E(RHF) =  -39.0091269679     A.U. after    6 cycles
 SCF Done:  E(RHF) =  -39.0091295951     A.U. after    2 cycles
 Optimization completed.
    -- Stationary point found.
 Normal termination of Gaussian 09 at Tue Oct 25 12:08:20 2016.

 -------------------------------------------------------
 #N Geom=AllCheck Guess=TCheck SCRF=Check HF/3-21G* Freq
 -------------------------------------------------------

 Structure from the checkpoint file:  "CH3pcbs4m.chk"
 -------------------
 Title Card Required
 -------------------
 Charge =  1 Multiplicity = 1

 SCF Done:  E(RHF) =  -39.0091295951     A.U. after    1 cycles

  Exact polarizability:   8.689   0.000   8.689   0.000   0.000   3.998
 Approx polarizability:   6.860   0.000   6.860   0.000   0.000   3.077

                      1                      2                      3
                     A1                      E                      E
 Frequencies --   1496.5534              1526.4524              1526.4524
 Red. masses --      1.2356                 1.0979                 1.0979
 Frc consts  --      1.6305                 1.5072                 1.5072
 IR Inten    --     13.4248                22.7195                22.7195
 Raman Activ --      0.0000                 3.7850                 3.7850

                      4                      5                      6
                     A1                      E                      E
 Frequencies --   3199.7339              3399.0196              3399.0196
 Red. masses --      1.0078                 1.1227                 1.1227
 Frc consts  --      6.0794                 7.6423                 7.6423
 IR Inten    --      0.0002                89.6938                89.6938
 Raman Activ --     78.3452                18.4693                18.4693

 - Thermochemistry -
 -------------------
 Temperature   298.150 Kelvin.  Pressure   1.00000 Atm.
 Atom     1 has atomic number  6 and mass  12.00000

 Molecular mass:    15.02348 amu.
 Principal axes and moments of inertia in atomic units:
                           1         2         3
     Eigenvalues --     6.26865   6.26865  12.53731
           X           -0.19993   0.97981   0.00000
           Y            0.97981   0.19993   0.00000
           Z            0.00000   0.00000   1.00000
 This molecule is an oblate symmetric top.
 Rotational symmetry number  3.
 Rotational temperatures (Kelvin)     13.81697    13.81697     6.90849
 Rotational constants (GHZ):         287.89929   287.89929   143.94969
 Zero-point vibrational energy      87011.8 (Joules/Mol)
                                   20.79631 (Kcal/Mol)
 Vibrational temperatures:   2153.20  2196.22  2196.22  4603.70  4890.42
          (Kelvin)           4890.43

 Zero-point correction=                           0.033141 (Hartree/Particle)
 Thermal correction to Energy=                    0.035987
 Thermal correction to Enthalpy=                  0.036932
 Thermal correction to Gibbs Free Energy=         0.015132
 Sum of electronic and zero-point Energies=            -38.975989
 Sum of electronic and thermal Energies=               -38.973142
 Sum of electronic and thermal Enthalpies=             -38.972198
 Sum of electronic and thermal Free Energies=          -38.993997

                     E (Thermal)             CV                S
                      KCal/Mol        Cal/Mol-Kelvin    Cal/Mol-Kelvin
 Total                   22.582              6.174             45.881
 Electronic               0.000              0.000              0.000
 Translational            0.889              2.981             34.068
 Rotational               0.889              2.981             11.780
 Vibrational             20.805              0.213              0.033

 Optimization completed.
    -- Stationary point found.
 Normal termination of Gaussian 09 at Tue Oct 25 12:08:22 2016.

 -----------------------------------------------------
 #N Geom=AllCheck Guess=TCheck SCRF=Check MP4SDQ/6-31G
 -----------------------------------------------------

 Structure from the checkpoint file:  "CH3pcbs4m.chk"
 -------------------
 Title Card Required
 -------------------
 Charge =  1 Multiplicity = 1

 SCF Done:  E(RHF) =  -39.2162107220     A.U. after    8 cycles
 E2 =    -0.6463423589D-01 EUMP2 =    -0.39280844957874D+02

 1\1\GINC-TC-NODE161\SP\RMP4SDQ-FC\6-31G\C1H3(1+)\MAXB2\25-Oct-2016\0\\
 #N Geom=AllCheck Guess=TCheck SCRF=Check MP4SDQ/6-31G\\Title Card Requ
 ired\\1,1\C,0,0.1261671899,0.2185279849,0.089213675\H,0,-0.0532103769,
 -0.0921630925,1.1053221167\H,0,1.0243708893,-0.092163082,-0.4186079448
 \H,0,-0.5920010321,0.8410496639,-0.4186079337\\Version=ES64L-G09RevD.0
 1\State=1-A1\HF=-39.2162107\MP2=-39.280845\MP3=-39.293902\MP4D=-39.297
 3839\MP4DQ=-39.2968631\MP4SDQ=-39.2969012\RMSD=1.414e-09\PG=C03V [C3(C
 1),3SGV(H1)]\\@

 Normal termination of Gaussian 09 at Tue Oct 25 12:08:24 2016.

 ----------------------------------------------------------------------
 #N Geom=AllCheck Guess=TCheck SCRF=Check MP2/6-31+D** CBSExtrap=(NMin=
 5,MinPop)
 ----------------------------------------------------------------------

 Structure from the checkpoint file:  "CH3pcbs4m.chk"
 -------------------
 Title Card Required
 -------------------
 Charge =  1 Multiplicity = 1

 SCF Done:  E(RHF) =  -39.2358406714     A.U. after    8 cycles
 E2 =    -0.1099577812D+00 EUMP2 =    -0.39345798452608D+02
 E2(CBS)=      -0.138156 CBS-Int=       0.009296 OIii=       1.773436
 Normal termination of Gaussian 09 at Tue Oct 25 12:08:26 2016.

 -----------------------------------------------------------
 #N Geom=AllCheck Guess=TCheck SCRF=Check HF/CBSB1 SCF=Tight
 -----------------------------------------------------------

 Structure from the checkpoint file:  "CH3pcbs4m.chk"
 -------------------
 Title Card Required
 -------------------
 Charge =  1 Multiplicity = 1

                         Standard orientation:
 ---------------------------------------------------------------------
 Center     Atomic      Atomic             Coordinates (Angstroms)
 Number     Number       Type             X           Y           Z
 ---------------------------------------------------------------------
      1          6           0        0.000000    0.000000    0.000155
      2          1           0        0.000000    1.077581   -0.000310
      3          1           0        0.933213   -0.538791   -0.000310
      4          1           0       -0.933213   -0.538791   -0.000310
 ---------------------------------------------------------------------

 SCF Done:  E(RHF) =  -39.2430558326     A.U. after    7 cycles

 The electronic state is 1-A1.
 Alpha  occ. eigenvalues --  -11.67976  -1.28272  -0.95615  -0.95615
 Alpha virt. eigenvalues --   -0.28612  -0.12844  -0.08201  -0.08201  -0.04700
 Alpha virt. eigenvalues --   -0.02074  -0.02074   0.01195   0.06617   0.08284
 Alpha virt. eigenvalues --    0.08284   0.41460   0.41460   0.43838   0.46722

 Mulliken charges:
               1
     1  C    0.201552
     2  H    0.266149
     3  H    0.266149
     4  H    0.266149
 Sum of Mulliken charges =   1.00000

 Dipole moment (field-independent basis, Debye):
    X=              0.0000    Y=              0.0000    Z=              0.0000  Tot=              0.0000
 Quadrupole moment (field-independent basis, Debye-Ang):
   XX=             -4.1406   YY=             -4.1406   ZZ=             -5.0055
   XY=              0.0000   XZ=              0.0000   YZ=              0.0000

 Normal termination of Gaussian 09 at Tue Oct 25 12:08:27 2016.
