 Gaussian 09, Revision D.01,
 Gaussian 09:  ES64L-G09RevD.01 24-Apr-2013

 -----------------------------------------------------------
 # mp2(full)/6-311g** scrf=(smd,solvent=water) geom=allcheck
 -----------------------------------------------------------

 Structure from the checkpoint file:  "CH3smdspe.chk"
 -------------------
 Title Card Required
 -------------------
 Charge =  1 Multiplicity = 1

                         Standard orientation:
 ---------------------------------------------------------------------
 Center     Atomic      Atomic             Coordinates (Angstroms)
 Number     Number       Type             X           Y           Z
 ---------------------------------------------------------------------
      1          6           0        0.000000    0.000000   -0.000007
      2          1           0        0.000000    1.090779    0.000014
      3          1           0        0.944642   -0.545389    0.000014
      4          1           0       -0.944642   -0.545389    0.000014
 ---------------------------------------------------------------------

 SCF Done:  E(RHF) =  -39.3743765226     A.U. after    8 cycles
 E2 =    -0.1308857654D+00 EUMP2 =    -0.39505262287932D+02

 Unable to determine electronic state:  an orbital has unidentified symmetry.
 Alpha  occ. eigenvalues --  -11.41521  -1.00645  -0.68073  -0.68069
 Alpha virt. eigenvalues --   -0.01277   0.15366   0.21454   0.21459   0.40965
 Alpha virt. eigenvalues --    0.40967   0.48380   0.57627   0.72758   0.72759
 Alpha virt. eigenvalues --    0.81137   1.20564   1.20570   1.55331   1.55333

 Mulliken charges:
               1
     1  C    0.220084
     2  H    0.259972
     3  H    0.259972
     4  H    0.259972
 Sum of Mulliken charges =   1.00000

 Dipole moment (field-independent basis, Debye):
    X=              0.0000    Y=              0.0000    Z=              0.0000  Tot=              0.0000
 Quadrupole moment (field-independent basis, Debye-Ang):
   XX=             -4.1582   YY=             -4.1582   ZZ=             -5.0245
   XY=              0.0000   XZ=              0.0000   YZ=              0.0000

 Normal termination of Gaussian 09 at Tue Oct 25 12:09:24 2016.
