 Gaussian 09, Revision D.01,
 Gaussian 09:  ES64L-G09RevD.01 24-Apr-2013

 ------------------
 # g4 geom=allcheck
 ------------------

 Structure from the checkpoint file:  "CH3pcbs4m.chk"
 -------------------
 Title Card Required
 -------------------
 Charge =  1 Multiplicity = 1

 SCF Done:  E(RB3LYP) =  -39.4848187481     A.U. after    8 cycles
 SCF Done:  E(RB3LYP) =  -39.4848564992     A.U. after    6 cycles
 SCF Done:  E(RB3LYP) =  -39.4847821718     A.U. after    6 cycles
 SCF Done:  E(RB3LYP) =  -39.4848565989     A.U. after    3 cycles
 Optimization completed.
    -- Stationary point found.
 Normal termination of Gaussian 09 at Tue Oct 25 12:08:37 2016.

 ----------------------------------------------------------
 #N Geom=AllCheck Guess=TCheck SCRF=Check B3LYP/GTBas3 Freq
 ----------------------------------------------------------

 Structure from the checkpoint file:  "CH3pcbs4m.chk"
 -------------------
 Title Card Required
 -------------------
 Charge =  1 Multiplicity = 1

 SCF Done:  E(RB3LYP) =  -39.4848565989     A.U. after    1 cycles

  Exact polarizability:   9.511   0.000   9.511   0.000   0.000   5.590
 Approx polarizability:  11.256   0.000  11.256   0.000   0.000   7.940

                      1                      2                      3
                      E                      E                     A1
 Frequencies --   1403.0619              1403.0631              1420.6207
 Red. masses --      1.0980                 1.0980                 1.2356
 Frc consts  --      1.2735                 1.2735                 1.4692
 IR Inten    --     18.5263                18.5233                10.6074

                      4                      5                      6
                     A1                      E                      E
 Frequencies --   3026.7608              3225.0389              3225.0390
 Red. masses --      1.0078                 1.1226                 1.1226
 Frc consts  --      5.4399                 6.8794                 6.8794
 IR Inten    --      0.0000                75.2228                75.2264

 - Thermochemistry -
 -------------------
 Temperature   298.150 Kelvin.  Pressure   1.00000 Atm.
 Atom     1 has atomic number  6 and mass  12.00000

 Molecular mass:    15.02348 amu.
 Principal axes and moments of inertia in atomic units:
                           1         2         3
     Eigenvalues --     6.47712   6.47712  12.95424
           X           -0.26719   0.96364   0.00000
           Y            0.96364   0.26719   0.00000
           Z            0.00000   0.00000   1.00000
 This molecule is an oblate symmetric top.
 Rotational symmetry number  3.
 Rotational temperatures (Kelvin)     13.37228    13.37228     6.68614
 Rotational constants (GHZ):         278.63334   278.63334   139.31667
 Zero-point vibrational energy      81965.6 (Joules/Mol)
                                   19.59026 (Kcal/Mol)
 Vibrational temperatures:   2018.69  2018.69  2043.95  4354.83  4640.11
          (Kelvin)           4640.11

 Zero-point correction=                           0.031219 (Hartree/Particle)
 Thermal correction to Energy=                    0.034073
 Thermal correction to Enthalpy=                  0.035017
 Thermal correction to Gibbs Free Energy=         0.013163
 Sum of electronic and zero-point Energies=            -39.453638
 Sum of electronic and thermal Energies=               -39.450783
 Sum of electronic and thermal Enthalpies=             -39.449839
 Sum of electronic and thermal Free Energies=          -39.471694

                     E (Thermal)             CV                S
                      KCal/Mol        Cal/Mol-Kelvin    Cal/Mol-Kelvin
 Total                   21.381              6.270             45.997
 Electronic               0.000              0.000              0.000
 Translational            0.889              2.981             34.068
 Rotational               0.889              2.981             11.877
 Vibrational             19.604              0.308              0.052

 Optimization completed.
    -- Stationary point found.
 Normal termination of Gaussian 09 at Tue Oct 25 12:08:42 2016.

 -----------------------------------------------------------------
 #N Geom=AllCheck Guess=TCheck SCRF=Check CCSD(T,E4T,FrzG4)/GTBas1
 -----------------------------------------------------------------

 Structure from the checkpoint file:  "CH3pcbs4m.chk"
 -------------------
 Title Card Required
 -------------------
 Charge =  1 Multiplicity = 1

 SCF Done:  E(RHF) =  -39.2300315267     A.U. after    7 cycles
 E2 =    -0.9526379294D-01 EUMP2 =    -0.39325295319694D+02
 CCSD(T)= -0.39347484310D+02
 50529\CCSD=-39.3458782\CCSD(T)=-39.3474843\RMSD=7.138e-09\PG=C03V [C3(
 Normal termination of Gaussian 09 at Tue Oct 25 12:08:44 2016.

 ---------------------------------------------------------
 #N Geom=AllCheck Guess=TCheck SCRF=Check MP4=FrzG4/GTBas2
 ---------------------------------------------------------

 Structure from the checkpoint file:  "CH3pcbs4m.chk"
 -------------------
 Title Card Required
 -------------------
 Charge =  1 Multiplicity = 1

 SCF Done:  E(RHF) =  -39.2302886254     A.U. after    7 cycles
 E2 =    -0.9541143907D-01 EUMP2 =    -0.39325700064495D+02
 Normal termination of Gaussian 09 at Tue Oct 25 12:08:45 2016.

 ---------------------------------------------------------
 #N Geom=AllCheck Guess=TCheck SCRF=Check MP4=FrzG4/GTBas3
 ---------------------------------------------------------

 Structure from the checkpoint file:  "CH3pcbs4m.chk"
 -------------------
 Title Card Required
 -------------------
 Charge =  1 Multiplicity = 1

 SCF Done:  E(RHF) =  -39.2382139303     A.U. after    7 cycles
 E2 =    -0.1219594285D+00 EUMP2 =    -0.39360173358812D+02
 Normal termination of Gaussian 09 at Tue Oct 25 12:08:47 2016.

 -----------------------------------------------------------
 #N Geom=AllCheck Guess=TCheck SCRF=Check MP2=Full/GTLargeXP
 -----------------------------------------------------------

 Structure from the checkpoint file:  "CH3pcbs4m.chk"
 -------------------
 Title Card Required
 -------------------
 Charge =  1 Multiplicity = 1

 SCF Done:  E(RHF) =  -39.2462144983     A.U. after    8 cycles
 E2 =    -0.1716668037D+00 EUMP2 =    -0.39417881301957D+02
 Normal termination of Gaussian 09 at Tue Oct 25 12:08:50 2016.
 SCF Done:  E(RHF) =  -39.2495399354     A.U. after    7 cycles
 Normal termination of Gaussian 09 at Tue Oct 25 12:08:52 2016.

                         Standard orientation:
 ---------------------------------------------------------------------
 Center     Atomic      Atomic             Coordinates (Angstroms)
 Number     Number       Type             X           Y           Z
 ---------------------------------------------------------------------
      1          6           0        0.000000    0.000000    0.000003
      2          1           0        0.000000    1.095352   -0.000006
      3          1           0        0.948603   -0.547676   -0.000006
      4          1           0       -0.948603   -0.547676   -0.000006
 ---------------------------------------------------------------------

 SCF Done:  E(RHF) =  -39.2502977380     A.U. after    6 cycles

 The electronic state is 1-A1.
 Alpha  occ. eigenvalues --  -11.68287  -1.27329  -0.94772  -0.94772
 Alpha virt. eigenvalues --   -0.28402  -0.12544  -0.08744  -0.08744  -0.07305
 Alpha virt. eigenvalues --   -0.02561  -0.02561  -0.00922   0.06452   0.06452
 Alpha virt. eigenvalues --    0.11031   0.12820   0.19382   0.19382   0.21181

 Mulliken charges:
               1
     1  C   -0.005023
     2  H    0.335008
     3  H    0.335008
     4  H    0.335008
 Sum of Mulliken charges =   1.00000

 Dipole moment (field-independent basis, Debye):
    X=              0.0000    Y=              0.0000    Z=              0.0000  Tot=              0.0000
 Quadrupole moment (field-independent basis, Debye-Ang):
   XX=             -4.0312   YY=             -4.0312   ZZ=             -5.0213
   XY=              0.0000   XZ=              0.0000   YZ=              0.0000

 Normal termination of Gaussian 09 at Tue Oct 25 12:09:00 2016.
