 Gaussian 09, Revision D.01,
 Gaussian 09:  ES64L-G09RevD.01 24-Apr-2013

 ----------------------------------------------------------------------
 # opt freq=raman scrf=(smd,solvent=water) mp2(full)/6-311G** geom=chec
 k
 ----------------------------------------------------------------------

 -------------------
 Title Card Required
 -------------------
 Structure from the checkpoint file:  "h3c+-solopt.chk"
 Charge =  0 Multiplicity = 2

 SCF Done:  E(UHF) =  -39.5684243628     A.U. after   11 cycles
 E2 =    -0.1528451880D+00 EUMP2 =    -0.39721269550788D+02
 SCF Done:  E(UHF) =  -39.5683939934     A.U. after    9 cycles
 E2 =    -0.1528799650D+00 EUMP2 =    -0.39721273958454D+02
 Optimization completed.
    -- Stationary point found.
 Normal termination of Gaussian 09 at Fri Oct 21 11:25:29 2016.

 ----------------------------------------------------------------------
 #N Geom=AllCheck Guess=TCheck SCRF=Check GenChk UMP2-Full/6-311G(d,p)
 Freq
 ----------------------------------------------------------------------

 Structure from the checkpoint file:  "h3c+-solopt.chk"
 -------------------
 Title Card Required
 -------------------
 Charge =  0 Multiplicity = 2

                         Standard orientation:
 ---------------------------------------------------------------------
 Center     Atomic      Atomic             Coordinates (Angstroms)
 Number     Number       Type             X           Y           Z
 ---------------------------------------------------------------------
      1          6           0       -0.000102    0.000000    0.000160
      2          1           0       -1.080569    0.000037   -0.000320
      3          1           0        0.540560   -0.935385   -0.000320
      4          1           0        0.540624    0.935348   -0.000320
 ---------------------------------------------------------------------

 SCF Done:  E(UHF) =  -39.5683939934     A.U. after    1 cycles
 E2 =    -0.1528799648D+00 EUMP2 =    -0.39721273958248D+02
 E2 =    -0.1528799648D+00 EUMP2 =    -0.39721273958248D+02
 SCF Done:  E(UHF) =  -39.5683947410     A.U. after    7 cycles
 E2 =    -0.1528799576D+00 EUMP2 =    -0.39721274698637D+02
 E2 =    -0.1528799576D+00 EUMP2 =    -0.39721274698637D+02
 SCF Done:  E(UHF) =  -39.5683949384     A.U. after    8 cycles
 E2 =    -0.1528799705D+00 EUMP2 =    -0.39721274908922D+02
 E2 =    -0.1528799705D+00 EUMP2 =    -0.39721274908922D+02
 SCF Done:  E(UHF) =  -39.5683948394     A.U. after    7 cycles
 E2 =    -0.1528799642D+00 EUMP2 =    -0.39721274803599D+02
 E2 =    -0.1528799642D+00 EUMP2 =    -0.39721274803599D+02
 SCF Done:  E(UHF) =  -39.5683948395     A.U. after    8 cycles
 E2 =    -0.1528799641D+00 EUMP2 =    -0.39721274803567D+02
 E2 =    -0.1528799641D+00 EUMP2 =    -0.39721274803567D+02
 SCF Done:  E(UHF) =  -39.5683946691     A.U. after    7 cycles
 E2 =    -0.1528799760D+00 EUMP2 =    -0.39721274645124D+02
 E2 =    -0.1528799760D+00 EUMP2 =    -0.39721274645124D+02
 SCF Done:  E(UHF) =  -39.5683943448     A.U. after    7 cycles
 E2 =    -0.1528799692D+00 EUMP2 =    -0.39721274314036D+02
 E2 =    -0.1528799692D+00 EUMP2 =    -0.39721274314036D+02

 Alpha  occ. eigenvalues --  -11.22565  -0.94084  -0.57231  -0.57214  -0.38130
 Alpha virt. eigenvalues --    0.17076   0.23869   0.23874   0.45366   0.45394
 Alpha virt. eigenvalues --    0.51587   0.57683   0.81888   0.81895   0.88572
 Alpha virt. eigenvalues --    1.27882   1.27901   1.64688   1.64718   1.67024

  Beta  occ. eigenvalues --  -11.20223  -0.84883  -0.55746  -0.55728
  Beta virt. eigenvalues --    0.13590   0.18278   0.24373   0.24379   0.45771
  Beta virt. eigenvalues --    0.45799   0.56210   0.71231   0.83565   0.83571
  Beta virt. eigenvalues --    0.92196   1.33991   1.34010   1.65262   1.65291

 Mulliken charges and spin densities:
               1          2
     1  C   -0.420053   1.180736
     2  H    0.140032  -0.060241
     3  H    0.140011  -0.060247
     4  H    0.140011  -0.060247
 Sum of Mulliken charges =   0.00000   1.00000

 Dipole moment (field-independent basis, Debye):
    X=              0.0008    Y=              0.0000    Z=              0.0067  Tot=              0.0067
 Quadrupole moment (field-independent basis, Debye-Ang):
   XX=             -7.1291   YY=             -7.1334   ZZ=             -8.9642
   XY=              0.0000   XZ=              0.0000   YZ=              0.0000

  Exact polarizability:  15.229   0.000  15.224   0.000   0.000   9.388
 Approx polarizability:   9.752   0.000   9.748   0.000   0.000   6.360

                      1                      2                      3
                      A                      A                      A
 Frequencies --    440.7589              1432.6626              1434.5188
 Red. masses --      1.2356                 1.1016                 1.1012
 Frc consts  --      0.1414                 1.3321                 1.3351
 IR Inten    --    121.3916                 5.2191                 5.1147
 Raman Activ --      0.0006                 3.3949                 3.4913

                      4                      5                      6
                      A                      A                      A
 Frequencies --   3167.8321              3361.9749              3362.6918
 Red. masses --      1.0078                 1.1189                 1.1193
 Frc consts  --      5.9588                 7.4512                 7.4570
 IR Inten    --      0.0003                 2.6869                 2.8757
 Raman Activ --    238.2883                61.8898                61.8155

 - Thermochemistry -
 -------------------
 Temperature   298.150 Kelvin.  Pressure   1.00000 Atm.
 Atom     1 has atomic number  6 and mass  12.00000

 Molecular mass:    15.02348 amu.
 Principal axes and moments of inertia in atomic units:
                           1         2         3
     Eigenvalues --     6.29762   6.30586  12.60347
           X            1.00000   0.00000   0.00000
           Y            0.00000   1.00000   0.00000
           Z            0.00000   0.00000   1.00000
 This molecule is an asymmetric top.
 Rotational symmetry number  1.
 Rotational temperatures (Kelvin)     13.75342    13.73545     6.87222
 Rotational constants (GHZ):         286.57515   286.20072   143.19395
 Zero-point vibrational energy      78956.2 (Joules/Mol)
                                   18.87098 (Kcal/Mol)
 Warning -- explicit consideration of   1 degrees of freedom as
           vibrations may cause significant error
 Vibrational temperatures:    634.15  2061.28  2063.95  4557.80  4837.13
          (Kelvin)           4838.16

 Zero-point correction=                           0.030073 (Hartree/Particle)
 Thermal correction to Energy=                    0.033190
 Thermal correction to Enthalpy=                  0.034134
 Thermal correction to Gibbs Free Energy=         0.010245
 Sum of electronic and zero-point Energies=            -39.691201
 Sum of electronic and thermal Energies=               -39.688084
 Sum of electronic and thermal Enthalpies=             -39.687140
 Sum of electronic and thermal Free Energies=          -39.711029

                     E (Thermal)             CV                S
                      KCal/Mol        Cal/Mol-Kelvin    Cal/Mol-Kelvin
 Total                   20.827              7.532             50.279
 Electronic               0.000              0.000              1.377
 Translational            0.889              2.981             34.068
 Rotational               0.889              2.981             13.979
 Vibrational             19.050              1.570              0.855
 Vibration     1          0.801              1.381              0.824

 Optimization completed.
    -- Stationary point found.
 Normal termination of Gaussian 09 at Fri Oct 21 11:26:33 2016.
