 Gaussian 09, Revision D.01,
 Gaussian 09:  ES64L-G09RevD.01 24-Apr-2013

 ----------------------------------------
 # opt freq mp2(full)/6-311g** geom=check
 ----------------------------------------

 ----
 ired
 ----
 Structure from the checkpoint file:  "H3CN2optmp2.chk"
 Charge =  1 Multiplicity = 3

 SCF Done:  E(UHF) =  -148.082744925     A.U. after   30 cycles
 E2 =    -0.4685513270D+00 EUMP2 =    -0.14855129625187D+03
 SCF Done:  E(UHF) =  -148.068069830     A.U. after   25 cycles
 E2 =    -0.4846000833D+00 EUMP2 =    -0.14855266991285D+03
 SCF Done:  E(UHF) =  -148.068827201     A.U. after   26 cycles
 E2 =    -0.4828982776D+00 EUMP2 =    -0.14855172547906D+03
 SCF Done:  E(UHF) =  -148.076302310     A.U. after   26 cycles
 E2 =    -0.4806923416D+00 EUMP2 =    -0.14855699465200D+03
 SCF Done:  E(UHF) =  -148.076859346     A.U. after   24 cycles
 E2 =    -0.4806347441D+00 EUMP2 =    -0.14855749409033D+03
 SCF Done:  E(UHF) =  -148.076138394     A.U. after   23 cycles
 E2 =    -0.4814991407D+00 EUMP2 =    -0.14855763753457D+03
 SCF Done:  E(UHF) =  -148.075633733     A.U. after   23 cycles
 E2 =    -0.4820255120D+00 EUMP2 =    -0.14855765924519D+03
 SCF Done:  E(UHF) =  -148.075535796     A.U. after   21 cycles
 E2 =    -0.4821256035D+00 EUMP2 =    -0.14855766139982D+03
 Optimization completed.
    -- Stationary point found.
 Normal termination of Gaussian 09 at Fri Oct 21 11:28:21 2016.

 ----------------------------------------------------------------------
 #N Geom=AllCheck Guess=TCheck SCRF=Check GenChk UMP2-Full/6-311G(d,p)
 Freq
 ----------------------------------------------------------------------

 Structure from the checkpoint file:  "H3CN2optmp2.chk"
 ----
 ired
 ----
 Charge =  1 Multiplicity = 3

                         Standard orientation:
 ---------------------------------------------------------------------
 Center     Atomic      Atomic             Coordinates (Angstroms)
 Number     Number       Type             X           Y           Z
 ---------------------------------------------------------------------
      1          6           0       -1.065949   -0.097900   -0.000056
      2          1           0       -1.599258    0.117409   -0.932424
      3          1           0       -0.825590   -1.223544    0.000180
      4          1           0       -1.599358    0.117286    0.932321
      5          7           0        0.208715    0.437227    0.000081
      6          7           0        1.279842   -0.212049   -0.000044
 ---------------------------------------------------------------------

 SCF Done:  E(UHF) =  -148.075535796     A.U. after    1 cycles
 E2 =    -0.4821256021D+00 EUMP2 =    -0.14855766139842D+03
 E2 =    -0.4821256021D+00 EUMP2 =    -0.14855766139842D+03

 The electronic state is 3-A.
 Alpha  occ. eigenvalues --  -16.04663 -16.02637 -11.55891  -1.75984  -1.39515
 Alpha  occ. eigenvalues --   -1.15288  -1.04302  -0.96262  -0.94863  -0.83594
 Alpha  occ. eigenvalues --   -0.80077  -0.77428
 Alpha virt. eigenvalues --   -0.21349  -0.04262  -0.00142   0.02201   0.06304
 Alpha virt. eigenvalues --    0.15879   0.22230   0.25284   0.37065   0.42317
 Alpha virt. eigenvalues --    0.46575   0.48539   0.50277   0.50857   0.52770

  Beta  occ. eigenvalues --  -16.01608 -15.98914 -11.55606  -1.64415  -1.33113
  Beta  occ. eigenvalues --   -1.02918  -0.93181  -0.90233  -0.83562  -0.77816
  Beta virt. eigenvalues --   -0.33266  -0.17296  -0.12687  -0.02335   0.01830
  Beta virt. eigenvalues --    0.02378   0.07771   0.17971   0.22857   0.29437
  Beta virt. eigenvalues --    0.41565   0.46958   0.50664   0.51588   0.51838

 Mulliken charges and spin densities:
               1          2
     1  C   -0.132978   0.042650
     2  H    0.242585   0.004159
     3  H    0.231532   0.150268
     4  H    0.242587   0.004203
     5  N    0.144406   0.745767
     6  N    0.271868   1.052952
 Sum of Mulliken charges =   1.00000   2.00000

 Dipole moment (field-independent basis, Debye):
    X=             -1.6146    Y=              0.0102    Z=              0.0002  Tot=              1.6146
 Quadrupole moment (field-independent basis, Debye-Ang):
   XX=            -10.2119   YY=            -14.4959   ZZ=            -14.6424
   XY=              1.1708   XZ=              0.0000   YZ=             -0.0005

  Exact polarizability:  40.403   5.435  22.004  -0.002  -0.001  15.857
 Approx polarizability:  27.270  -2.377  18.021  -0.001   0.000  14.058

                      1                      2                      3
                      A                      A                      A
 Frequencies --    281.4796               362.7665               899.6327
 Red. masses --      1.5735                 2.3832                 1.6729
 Frc consts  --      0.0735                 0.1848                 0.7977
 IR Inten    --      2.5088                48.7682                23.9301

                      4                      5                      6
                      A                      A                      A
 Frequencies --    900.2733               946.7685              1171.4482
 Red. masses --      1.2784                 4.2615                 1.0766
 Frc consts  --      0.6105                 2.2506                 0.8705
 IR Inten    --     76.5751               490.2092                47.1914

                      7                      8                      9
                      A                      A                      A
 Frequencies --   1208.3014              1455.4401              1650.0125
 Red. masses --      1.1939                 1.1968                10.3292
 Frc consts  --      1.0270                 1.4937                16.5687
 IR Inten    --    133.9529                25.6056                11.7832

                     10                     11                     12
                      A                      A                      A
 Frequencies --   2464.3615              3086.7841              3171.3242
 Red. masses --      1.0555                 1.0520                 1.1061
 Frc consts  --      3.7768                 5.9057                 6.5541
 IR Inten    --    932.7292                87.8937               104.3480

 - Thermochemistry -
 -------------------
 Temperature   298.150 Kelvin.  Pressure   1.00000 Atm.
 Atom     1 has atomic number  6 and mass  12.00000

 Molecular mass:    43.02962 amu.
 Principal axes and moments of inertia in atomic units:
                           1         2         3
     Eigenvalues --    23.83387 158.62378 169.94292
           X            0.99982   0.01912   0.00000
           Y           -0.01912   0.99982  -0.00011
           Z            0.00000   0.00011   1.00000
 This molecule is an asymmetric top.
 Rotational symmetry number  1.
 Rotational temperatures (Kelvin)      3.63406     0.54603     0.50966
 Rotational constants (GHZ):          75.72169    11.37749    10.61969
 Zero-point vibrational energy     105263.0 (Joules/Mol)
                                   25.15845 (Kcal/Mol)
 Warning -- explicit consideration of   2 degrees of freedom as
           vibrations may cause significant error
 Vibrational temperatures:    404.99   521.94  1294.37  1295.29  1362.19
          (Kelvin)           1685.45  1738.47  2094.05  2374.00  3545.66
                             4441.19  4562.82

 Zero-point correction=                           0.040093 (Hartree/Particle)
 Thermal correction to Energy=                    0.043913
 Thermal correction to Enthalpy=                  0.044857
 Thermal correction to Gibbs Free Energy=         0.014632
 Sum of electronic and zero-point Energies=           -148.517569
 Sum of electronic and thermal Energies=              -148.513748
 Sum of electronic and thermal Enthalpies=            -148.512804
 Sum of electronic and thermal Free Energies=         -148.543030

                     E (Thermal)             CV                S
                      KCal/Mol        Cal/Mol-Kelvin    Cal/Mol-Kelvin
 Total                   27.556             11.215             63.615
 Electronic               0.000              0.000              2.183
 Translational            0.889              2.981             37.204
 Rotational               0.889              2.981             21.090
 Vibrational             25.778              5.254              3.137
 Vibration     1          0.681              1.708              1.525
 Vibration     2          0.737              1.549              1.110

 Normal termination of Gaussian 09 at Fri Oct 21 11:28:46 2016.
