 Gaussian 09, Revision D.01,
 Gaussian 09:  ES64L-G09RevD.01 24-Apr-2013

 -----------------------------------------------------------
 # mp2(full)/6-311g** scrf=(smd,solvent=water) geom=allcheck
 -----------------------------------------------------------

 Structure from the checkpoint file:  "H3CN2smdspe.chk"
 -------------------
 Title Card Required
 -------------------
 Charge =  1 Multiplicity = 1

                         Standard orientation:
 ---------------------------------------------------------------------
 Center     Atomic      Atomic             Coordinates (Angstroms)
 Number     Number       Type             X           Y           Z
 ---------------------------------------------------------------------
      1          6           0        0.000000    0.000000   -1.189547
      2          1           0        0.000000    1.048837   -1.489730
      3          1           0        0.908320   -0.524419   -1.489730
      4          1           0       -0.908320   -0.524419   -1.489730
      5          7           0        0.000000    0.000000    0.269731
      6          7           0        0.000000    0.000000    1.388337
 ---------------------------------------------------------------------

 SCF Done:  E(RHF) =  -148.360922580     A.U. after   11 cycles
 E2 =    -0.5397947044D+00 EUMP2 =    -0.14890071728431D+03

 The electronic state is 1-A1.
 Alpha  occ. eigenvalues --  -15.81743 -15.80217 -11.34298  -1.56099  -1.15301
 Alpha  occ. eigenvalues --   -0.83610  -0.74114  -0.73712  -0.73711  -0.60393
 Alpha  occ. eigenvalues --   -0.60392
 Alpha virt. eigenvalues --    0.06845   0.06846   0.15441   0.22389   0.22392
 Alpha virt. eigenvalues --    0.24883   0.41246   0.43551   0.43551   0.57098
 Alpha virt. eigenvalues --    0.66515   0.69633   0.69634   0.74002   0.74003

 Mulliken charges:
               1
     1  C   -0.031421
     2  H    0.233784
     3  H    0.233784
     4  H    0.233784
     5  N    0.155581
     6  N    0.174489
 Sum of Mulliken charges =   1.00000

 Dipole moment (field-independent basis, Debye):
    X=              0.0000    Y=              0.0000    Z=             -2.4438  Tot=              2.4438
 Quadrupole moment (field-independent basis, Debye-Ang):
   XX=            -14.4675   YY=            -14.4675   ZZ=             -9.8095
   XY=              0.0000   XZ=              0.0000   YZ=              0.0000

 Normal termination of Gaussian 09 at Tue Oct 25 12:13:44 2016.
