 Gaussian 09, Revision D.01,
 Gaussian 09:  ES64L-G09RevD.01 24-Apr-2013

 ------------------
 # g4 geom=allcheck
 ------------------

 Structure from the checkpoint file:  "H3CN2cbs4m.chk"
 -------------------
 Title Card Required
 -------------------
 Charge =  1 Multiplicity = 1

 SCF Done:  E(RB3LYP) =  -149.093993607     A.U. after   13 cycles
 SCF Done:  E(RB3LYP) =  -149.095241397     A.U. after   11 cycles
 SCF Done:  E(RB3LYP) =  -149.095260187     A.U. after    8 cycles
 SCF Done:  E(RB3LYP) =  -149.095263160     A.U. after    7 cycles
 SCF Done:  E(RB3LYP) =  -149.095263927     A.U. after    7 cycles
 Optimization completed.
    -- Stationary point found.
 Normal termination of Gaussian 09 at Tue Oct 25 12:09:55 2016.

 ----------------------------------------------------------
 #N Geom=AllCheck Guess=TCheck SCRF=Check B3LYP/GTBas3 Freq
 ----------------------------------------------------------

 Structure from the checkpoint file:  "H3CN2cbs4m.chk"
 -------------------
 Title Card Required
 -------------------
 Charge =  1 Multiplicity = 1

 SCF Done:  E(RB3LYP) =  -149.095263927     A.U. after    1 cycles

  Exact polarizability:  15.769   0.000  15.769   0.000   0.000  30.616
 Approx polarizability:  21.831   0.000  21.831   0.000   0.000  52.654

                      1                      2                      3
                      E                      E                     A1
 Frequencies --    368.6291               368.6299               768.6888
 Red. masses --      4.4397                 4.4397                 7.8324
 Frc consts  --      0.3555                 0.3555                 2.7268
 IR Inten    --      0.3196                 0.3194                 1.3832

                      4                      5                      6
                      E                      E                     A1
 Frequencies --   1131.5473              1131.5476              1408.6222
 Red. masses --      1.3718                 1.3719                 1.1198
 Frc consts  --      1.0349                 1.0349                 1.3091
 IR Inten    --      2.5223                 2.5221                 8.1983

                      7                      8                      9
                      E                      E                     A1
 Frequencies --   1430.2636              1430.2636              2458.7442
 Red. masses --      1.0348                 1.0348                13.0789
 Frc consts  --      1.2472                 1.2472                46.5853
 IR Inten    --     29.7274                29.7279                 0.6524

                     10                     11                     12
                     A1                      E                      E
 Frequencies --   3043.0490              3155.6280              3155.6283
 Red. masses --      1.0266                 1.1090                 1.1090
 Frc consts  --      5.6012                 6.5064                 6.5064
 IR Inten    --     49.4280                43.5744                43.5683

 - Thermochemistry -
 -------------------
 Temperature   298.150 Kelvin.  Pressure   1.00000 Atm.
 Atom     1 has atomic number  6 and mass  12.00000

 Molecular mass:    43.02962 amu.
 Principal axes and moments of inertia in atomic units:
                           1         2         3
     Eigenvalues --    11.89380 185.03337 185.03337
           X            0.00000  -0.59319   0.80506
           Y            0.00000   0.80506   0.59319
           Z            1.00000   0.00000   0.00000
 This molecule is a prolate symmetric top.
 Rotational symmetry number  3.
 Rotational temperatures (Kelvin)      7.28226     0.46810     0.46810
 Rotational constants (GHZ):         151.73794     9.75360     9.75360
 Zero-point vibrational energy     118736.8 (Joules/Mol)
                                   28.37877 (Kcal/Mol)
 Warning -- explicit consideration of   2 degrees of freedom as
           vibrations may cause significant error
 Vibrational temperatures:    530.37   530.38  1105.97  1628.04  1628.04
          (Kelvin)           2026.69  2057.83  2057.83  3537.58  4378.26
                             4540.24  4540.24

 Zero-point correction=                           0.045224 (Hartree/Particle)
 Thermal correction to Energy=                    0.048892
 Thermal correction to Enthalpy=                  0.049836
 Thermal correction to Gibbs Free Energy=         0.022172
 Sum of electronic and zero-point Energies=           -149.050039
 Sum of electronic and thermal Energies=              -149.046372
 Sum of electronic and thermal Enthalpies=            -149.045428
 Sum of electronic and thermal Free Energies=         -149.073092

                     E (Thermal)             CV                S
                      KCal/Mol        Cal/Mol-Kelvin    Cal/Mol-Kelvin
 Total                   30.680             10.543             58.223
 Electronic               0.000              0.000              0.000
 Translational            0.889              2.981             37.204
 Rotational               0.889              2.981             18.454
 Vibrational             28.903              4.581              2.564
 Vibration     1          0.741              1.537              1.085
 Vibration     2          0.741              1.537              1.085

 Optimization completed.
    -- Stationary point found.
 Normal termination of Gaussian 09 at Tue Oct 25 12:10:05 2016.

 -----------------------------------------------------------------
 #N Geom=AllCheck Guess=TCheck SCRF=Check CCSD(T,E4T,FrzG4)/GTBas1
 -----------------------------------------------------------------

 Structure from the checkpoint file:  "H3CN2cbs4m.chk"
 -------------------
 Title Card Required
 -------------------
 Charge =  1 Multiplicity = 1

 SCF Done:  E(RHF) =  -148.212397573     A.U. after   11 cycles
 E2 =    -0.4398691240D+00 EUMP2 =    -0.14865226669665D+03
 CCSD(T)= -0.14868535677D+03
 TQ=-148.6886254\MP4SDQ=-148.6696521\CCSD=-148.6684241\CCSD(T)=-148.685
 Normal termination of Gaussian 09 at Tue Oct 25 12:10:09 2016.

 ---------------------------------------------------------
 #N Geom=AllCheck Guess=TCheck SCRF=Check MP4=FrzG4/GTBas2
 ---------------------------------------------------------

 Structure from the checkpoint file:  "H3CN2cbs4m.chk"
 -------------------
 Title Card Required
 -------------------
 Charge =  1 Multiplicity = 1

 SCF Done:  E(RHF) =  -148.214214535     A.U. after   10 cycles
 E2 =    -0.4417944317D+00 EUMP2 =    -0.14865600896706D+03
 Normal termination of Gaussian 09 at Tue Oct 25 12:10:12 2016.

 ---------------------------------------------------------
 #N Geom=AllCheck Guess=TCheck SCRF=Check MP4=FrzG4/GTBas3
 ---------------------------------------------------------

 Structure from the checkpoint file:  "H3CN2cbs4m.chk"
 -------------------
 Title Card Required
 -------------------
 Charge =  1 Multiplicity = 1

 SCF Done:  E(RHF) =  -148.232790853     A.U. after   10 cycles
 E2 =    -0.5166931033D+00 EUMP2 =    -0.14874948395614D+03
 Normal termination of Gaussian 09 at Tue Oct 25 12:10:19 2016.

 -----------------------------------------------------------
 #N Geom=AllCheck Guess=TCheck SCRF=Check MP2=Full/GTLargeXP
 -----------------------------------------------------------

 Structure from the checkpoint file:  "H3CN2cbs4m.chk"
 -------------------
 Title Card Required
 -------------------
 Charge =  1 Multiplicity = 1

 SCF Done:  E(RHF) =  -148.267443426     A.U. after   10 cycles
 E2 =    -0.6774558095D+00 EUMP2 =    -0.14894489923589D+03
 Normal termination of Gaussian 09 at Tue Oct 25 12:10:27 2016.
 SCF Done:  E(RHF) =  -148.280324765     A.U. after    8 cycles
 Normal termination of Gaussian 09 at Tue Oct 25 12:10:38 2016.

                         Standard orientation:
 ---------------------------------------------------------------------
 Center     Atomic      Atomic             Coordinates (Angstroms)
 Number     Number       Type             X           Y           Z
 ---------------------------------------------------------------------
      1          6           0        0.000000    0.000000   -1.175274
      2          1           0        0.000000    1.049562   -1.485591
      3          1           0        0.908948   -0.524781   -1.485591
      4          1           0       -0.908948   -0.524781   -1.485591
      5          7           0        0.000000    0.000000    0.273321
      6          7           0        0.000000    0.000000    1.370738
 ---------------------------------------------------------------------

 SCF Done:  E(RHF) =  -148.282622756     A.U. after    7 cycles

 The electronic state is 1-A1.
 Alpha  occ. eigenvalues --  -16.01842 -16.00557 -11.56562  -1.78505  -1.37564
 Alpha  occ. eigenvalues --   -1.05025  -0.96213  -0.96213  -0.95104  -0.82728
 Alpha  occ. eigenvalues --   -0.82728
 Alpha virt. eigenvalues --   -0.13680  -0.13680  -0.11356  -0.07602  -0.07601
 Alpha virt. eigenvalues --   -0.07601  -0.04738  -0.02948  -0.02948   0.00380
 Alpha virt. eigenvalues --    0.00380   0.01046   0.02024   0.02024   0.02449

 Mulliken charges:
               1
     1  C   -0.515636
     2  H    0.295798
     3  H    0.295798
     4  H    0.295798
     5  N    0.460988
     6  N    0.167254
 Sum of Mulliken charges =   1.00000

 Dipole moment (field-independent basis, Debye):
    X=              0.0000    Y=              0.0000    Z=             -2.0188  Tot=              2.0188
 Quadrupole moment (field-independent basis, Debye-Ang):
   XX=            -14.2846   YY=            -14.2846   ZZ=             -8.9570
   XY=              0.0000   XZ=              0.0000   YZ=              0.0000

 Normal termination of Gaussian 09 at Tue Oct 25 12:12:45 2016.
