 Gaussian 09, Revision D.01,
 Gaussian 09:  ES64L-G09RevD.01 24-Apr-2013

 -----------------------------------------
 # opt freq uhf/6-311g** geom=connectivity
 -----------------------------------------

 -------------------
 Title Card Required
 -------------------
 Symbolic Z-matrix:
 Charge =  1 Multiplicity = 3

 SCF Done:  E(UHF) =  -148.025737834     A.U. after   31 cycles
 SCF Done:  E(UHF) =  -148.070044755     A.U. after   36 cycles
 SCF Done:  E(UHF) =  -148.065877027     A.U. after   32 cycles
 SCF Done:  E(UHF) =  -148.081273959     A.U. after   31 cycles
 SCF Done:  E(UHF) =  -148.082096045     A.U. after   26 cycles
 SCF Done:  E(UHF) =  -148.082546869     A.U. after   25 cycles
 SCF Done:  E(UHF) =  -148.082676713     A.U. after   34 cycles
 SCF Done:  E(UHF) =  -148.082730336     A.U. after   34 cycles
 SCF Done:  E(UHF) =  -148.082743123     A.U. after   29 cycles
 SCF Done:  E(UHF) =  -148.082744925     A.U. after   24 cycles
 Optimization completed.
    -- Stationary point found.
 Normal termination of Gaussian 09 at Fri Oct 21 11:17:25 2016.

 --------------------------------------------------------------------
 #N Geom=AllCheck Guess=TCheck SCRF=Check GenChk UHF/6-311G(d,p) Freq
 --------------------------------------------------------------------

 Structure from the checkpoint file:  "H3CN2opt.chk"
 -------------------
 Title Card Required
 -------------------
 Charge =  1 Multiplicity = 3

                         Standard orientation:
 ---------------------------------------------------------------------
 Center     Atomic      Atomic             Coordinates (Angstroms)
 Number     Number       Type             X           Y           Z
 ---------------------------------------------------------------------
      1          6           0       -1.118511   -0.104191    0.000062
      2          1           0       -1.603162    0.241427   -0.903129
      3          1           0       -1.001194   -1.195752   -0.002625
      4          1           0       -1.602144    0.237474    0.905212
      5          7           0        0.244468    0.386106    0.000002
      6          7           0        1.315185   -0.194392    0.000022
 ---------------------------------------------------------------------

 SCF Done:  E(UHF) =  -148.082744925     A.U. after    1 cycles

 The electronic state is 3-A.
 Alpha  occ. eigenvalues --  -16.04804 -16.02144 -11.55259  -1.78026  -1.38265
 Alpha  occ. eigenvalues --   -1.14971  -1.05474  -0.96442  -0.94272  -0.85452
 Alpha  occ. eigenvalues --   -0.81465  -0.75853
 Alpha virt. eigenvalues --   -0.20229  -0.03887   0.01195   0.02399   0.04644
 Alpha virt. eigenvalues --    0.17630   0.20837   0.27353   0.35263   0.41537
 Alpha virt. eigenvalues --    0.45489   0.49618   0.49685   0.52412   0.52988

  Beta  occ. eigenvalues --  -16.01975 -15.98171 -11.54998  -1.65542  -1.32508
  Beta  occ. eigenvalues --   -1.02632  -0.93105  -0.90009  -0.85495  -0.79396
  Beta virt. eigenvalues --   -0.33995  -0.15592  -0.11080  -0.02134   0.02367
  Beta virt. eigenvalues --    0.02527   0.06861   0.19575   0.21123   0.31230
  Beta virt. eigenvalues --    0.40263   0.44902   0.51174   0.52282   0.53224

 Mulliken charges and spin densities:
               1          2
     1  C   -0.104591   0.045946
     2  H    0.229537  -0.002425
     3  H    0.220574   0.090925
     4  H    0.229580  -0.002604
     5  N    0.153994   0.712247
     6  N    0.270906   1.155911
 Sum of Mulliken charges =   1.00000   2.00000

 Dipole moment (field-independent basis, Debye):
    X=             -1.5248    Y=              0.2776    Z=              0.0001  Tot=              1.5499
 Quadrupole moment (field-independent basis, Debye-Ang):
   XX=             -9.9613   YY=            -14.4761   ZZ=            -14.7539
   XY=              1.0859   XZ=              0.0007   YZ=              0.0007

  Exact polarizability:  30.879  -0.530  18.092   0.006  -0.005  18.041
 Approx polarizability:  25.076  -2.391  16.020   0.001   0.000  13.745

                      1                      2                      3
                      A                      A                      A
 Frequencies --    217.1579               411.7988               853.3603
 Red. masses --      1.7265                 3.5031                 7.7056
 Frc consts  --      0.0480                 0.3500                 3.3061
 IR Inten    --      0.0236                 1.5543                 4.1276
 Raman Activ --      4.3057                 1.4857                 4.6878

                      4                      5                      6
                      A                      A                      A
 Frequencies --   1133.3152              1137.4489              1465.9614
 Red. masses --      1.2736                 1.4564                 1.0309
 Frc consts  --      0.9638                 1.1102                 1.3053
 IR Inten    --     14.9185                31.5873                64.0273
 Raman Activ --      1.8018                62.3264                35.0856

                      7                      8                      9
                      A                      A                      A
 Frequencies --   1482.3152              1560.1489              2097.6209
 Red. masses --      1.1063                 1.0752                12.3414
 Frc consts  --      1.4322                 1.5419                31.9939
 IR Inten    --     26.1506                12.7028                88.1365
 Raman Activ --     22.4372                22.4563               840.7215

                     10                     11                     12
                      A                      A                      A
 Frequencies --   3059.8739              3250.5254              3310.8633
 Red. masses --      1.0490                 1.0747                 1.1086
 Frc consts  --      5.7869                 6.6901                 7.1600
 IR Inten    --    121.6418                25.8130                49.9727
 Raman Activ --    276.3623               151.1516                52.1793

 - Thermochemistry -
 -------------------
 Temperature   298.150 Kelvin.  Pressure   1.00000 Atm.
 Atom     1 has atomic number  6 and mass  12.00000

 Molecular mass:    43.02962 amu.
 Principal axes and moments of inertia in atomic units:
                           1         2         3
     Eigenvalues --    21.18969 169.64855 179.06906
           X            0.99993   0.01193   0.00001
           Y           -0.01193   0.99993   0.00003
           Z           -0.00001  -0.00003   1.00000
 This molecule is an asymmetric top.
 Rotational symmetry number  1.
 Rotational temperatures (Kelvin)      4.08754     0.51055     0.48369
 Rotational constants (GHZ):          85.17071    10.63812    10.07846
 Zero-point vibrational energy     119509.3 (Joules/Mol)
                                   28.56340 (Kcal/Mol)
 Warning -- explicit consideration of   2 degrees of freedom as
           vibrations may cause significant error
 Vibrational temperatures:    312.44   592.49  1227.79  1630.59  1636.53
          (Kelvin)           2109.19  2132.72  2244.70  3018.00  4402.47
                             4676.78  4763.59

 Zero-point correction=                           0.045519 (Hartree/Particle)
 Thermal correction to Energy=                    0.049306
 Thermal correction to Enthalpy=                  0.050251
 Thermal correction to Gibbs Free Energy=         0.019987
 Sum of electronic and zero-point Energies=           -148.037226
 Sum of electronic and thermal Energies=              -148.033438
 Sum of electronic and thermal Enthalpies=            -148.032494
 Sum of electronic and thermal Free Energies=         -148.062758

                     E (Thermal)             CV                S
                      KCal/Mol        Cal/Mol-Kelvin    Cal/Mol-Kelvin
 Total                   30.940             10.523             63.695
 Electronic               0.000              0.000              2.183
 Translational            0.889              2.981             37.204
 Rotational               0.889              2.981             21.092
 Vibrational             29.163              4.562              3.215
 Vibration     1          0.646              1.815              1.983
 Vibration     2          0.776              1.445              0.920

 Optimization completed.
    -- Stationary point found.
 Normal termination of Gaussian 09 at Fri Oct 21 11:17:30 2016.
