 Gaussian 09, Revision D.01,
 Gaussian 09:  ES64L-G09RevD.01 24-Apr-2013

 -----------------------------------------------
 # opt freq mp2(full)/6-311g** geom=connectivity
 -----------------------------------------------

 -------------------
 Title Card Required
 -------------------
 Symbolic Z-matrix:
 Charge =  1 Multiplicity = 1

 SCF Done:  E(RHF) =  -148.248792869     A.U. after   11 cycles
 E2 =    -0.5326573864D+00 EUMP2 =    -0.14878145025561D+03
 SCF Done:  E(RHF) =  -148.247251798     A.U. after   10 cycles
 E2 =    -0.5376024188D+00 EUMP2 =    -0.14878485421710D+03
 SCF Done:  E(RHF) =  -148.246422109     A.U. after    9 cycles
 E2 =    -0.5385017533D+00 EUMP2 =    -0.14878492386187D+03
 SCF Done:  E(RHF) =  -148.246215796     A.U. after    8 cycles
 E2 =    -0.5387178174D+00 EUMP2 =    -0.14878493361357D+03
 SCF Done:  E(RHF) =  -148.246284447     A.U. after    7 cycles
 E2 =    -0.5386496250D+00 EUMP2 =    -0.14878493407189D+03
 Optimization completed.
    -- Stationary point found.
 Normal termination of Gaussian 09 at Tue Oct 25 12:00:59 2016.

 ----------------------------------------------------------------------
 #N Geom=AllCheck Guess=TCheck SCRF=Check GenChk RMP2-Full/6-311G(d,p)
 Freq
 ----------------------------------------------------------------------

 Structure from the checkpoint file:  "H3CN2opt.chk"
 -------------------
 Title Card Required
 -------------------
 Charge =  1 Multiplicity = 1

                         Standard orientation:
 ---------------------------------------------------------------------
 Center     Atomic      Atomic             Coordinates (Angstroms)
 Number     Number       Type             X           Y           Z
 ---------------------------------------------------------------------
      1          6           0        0.000000    0.000000   -1.189547
      2          1           0        0.000000    1.048837   -1.489730
      3          1           0        0.908320   -0.524419   -1.489730
      4          1           0       -0.908320   -0.524419   -1.489730
      5          7           0        0.000000    0.000000    0.269731
      6          7           0        0.000000    0.000000    1.388337
 ---------------------------------------------------------------------

 SCF Done:  E(RHF) =  -148.246284447     A.U. after    1 cycles
 E2 =    -0.5386496228D+00 EUMP2 =    -0.14878493406974D+03
 E2 =    -0.5386496228D+00 EUMP2 =    -0.14878493406974D+03

 The electronic state is 1-A1.
 Alpha  occ. eigenvalues --  -16.02614 -16.01926 -11.56800  -1.77547  -1.37431
 Alpha  occ. eigenvalues --   -1.05415  -0.95591  -0.95591  -0.95110  -0.82632
 Alpha  occ. eigenvalues --   -0.82632
 Alpha virt. eigenvalues --   -0.14287  -0.14287  -0.05099   0.02311   0.02311
 Alpha virt. eigenvalues --    0.02784   0.19856   0.21291   0.21291   0.37939
 Alpha virt. eigenvalues --    0.44813   0.48434   0.48434   0.52431   0.52431

 Mulliken charges:
               1
     1  C   -0.040852
     2  H    0.232543
     3  H    0.232543
     4  H    0.232543
     5  N    0.108961
     6  N    0.234261
 Sum of Mulliken charges =   1.00000

 Dipole moment (field-independent basis, Debye):
    X=              0.0000    Y=              0.0000    Z=             -1.9592  Tot=              1.9592
 Quadrupole moment (field-independent basis, Debye-Ang):
   XX=            -14.4712   YY=            -14.4712   ZZ=             -9.0433
   XY=              0.0000   XZ=              0.0000   YZ=              0.0000

  Exact polarizability:  14.857   0.000  14.857   0.000   0.000  28.274
 Approx polarizability:  13.335   0.000  13.335   0.000   0.000  28.162

                      1                      2                      3
                      E                      E                     A1
 Frequencies --    345.4142               345.4143               777.5822
 Red. masses --      4.6977                 4.6977                 7.4142
 Frc consts  --      0.3302                 0.3302                 2.6412
 IR Inten    --      0.2779                 0.2779                 7.1499

                      4                      5                      6
                      E                      E                     A1
 Frequencies --   1155.4075              1155.4075              1437.2805
 Red. masses --      1.3390                 1.3390                 1.1318
 Frc consts  --      1.0532                 1.0532                 1.3775
 IR Inten    --      0.6815                 0.6815                 3.3696

                      7                      8                      9
                      E                      E                     A1
 Frequencies --   1470.1375              1470.1375              2220.1787
 Red. masses --      1.0358                 1.0358                13.0457
 Frc consts  --      1.3190                 1.3190                37.8874
 IR Inten    --     30.6862                30.6862                 5.7332

                     10                     11                     12
                     A1                      E                      E
 Frequencies --   3105.4873              3237.3838              3237.3838
 Red. masses --      1.0245                 1.1113                 1.1113
 Frc consts  --      5.8212                 6.8620                 6.8620
 IR Inten    --     32.6266                36.0886                36.0886

 - Thermochemistry -
 -------------------
 Temperature   298.150 Kelvin.  Pressure   1.00000 Atm.
 Atom     1 has atomic number  6 and mass  12.00000

 Molecular mass:    43.02962 amu.
 Principal axes and moments of inertia in atomic units:
                           1         2         3
     Eigenvalues --    11.87737 188.92603 188.92603
           X            0.00000   0.83141   0.55565
           Y            0.00000  -0.55565   0.83141
           Z            1.00000   0.00000   0.00000
 This molecule is a prolate symmetric top.
 Rotational symmetry number  3.
 Rotational temperatures (Kelvin)      7.29234     0.45845     0.45845
 Rotational constants (GHZ):         151.94785     9.55263     9.55263
 Zero-point vibrational energy     119370.7 (Joules/Mol)
                                   28.53027 (Kcal/Mol)
 Warning -- explicit consideration of   2 degrees of freedom as
           vibrations may cause significant error
 Vibrational temperatures:    496.97   496.97  1118.77  1662.37  1662.37
          (Kelvin)           2067.92  2115.20  2115.20  3194.34  4468.10
                             4657.87  4657.87

 Zero-point correction=                           0.045466 (Hartree/Particle)
 Thermal correction to Energy=                    0.049174
 Thermal correction to Enthalpy=                  0.050118
 Thermal correction to Gibbs Free Energy=         0.022351
 Sum of electronic and zero-point Energies=           -148.739468
 Sum of electronic and thermal Energies=              -148.735760
 Sum of electronic and thermal Enthalpies=            -148.734816
 Sum of electronic and thermal Free Energies=         -148.762583

                     E (Thermal)             CV                S
                      KCal/Mol        Cal/Mol-Kelvin    Cal/Mol-Kelvin
 Total                   30.857             10.556             58.441
 Electronic               0.000              0.000              0.000
 Translational            0.889              2.981             37.204
 Rotational               0.889              2.981             18.494
 Vibrational             29.080              4.594              2.742
 Vibration     1          0.724              1.585              1.187
 Vibration     2          0.724              1.585              1.187

 Optimization completed.
    -- Stationary point found.
 Normal termination of Gaussian 09 at Tue Oct 25 12:01:11 2016.
