 Gaussian 09, Revision D.01,
 Gaussian 09:  ES64L-G09RevD.01 24-Apr-2013

 ----------------------
 # cbs-4m geom=allcheck
 ----------------------

 Structure from the checkpoint file:  "H3CN2cbs4m.chk"
 ----
 ired
 ----
 Charge =  1 Multiplicity = 3

 SCF Done:  E(UHF) =  -147.190026067     A.U. after   26 cycles
 SCF Done:  E(UHF) =  -147.193097323     A.U. after   28 cycles
 SCF Done:  E(UHF) =  -147.196804265     A.U. after   25 cycles
 SCF Done:  E(UHF) =  -147.197750763     A.U. after   27 cycles
 SCF Done:  E(UHF) =  -147.197933769     A.U. after   23 cycles
 SCF Done:  E(UHF) =  -147.197952234     A.U. after   25 cycles
 SCF Done:  E(UHF) =  -147.197956665     A.U. after   23 cycles
 Optimization completed.
    -- Stationary point found.

 1\1\GINC-TC-NODE158\FOpt\UHF\3-21G*\C1H3N2(1+,3)\MAXB2\21-Oct-2016\0\\
 # cbs-4m geom=allcheck\\ired\\1,3\C,-0.0428026241,0.0250074645,0.01927
 42677\H,0.0792183574,-0.0014381477,1.0930460203\H,0.9002486732,-0.1759
 98423,-0.4932524332\H,-0.492059867,0.9444622418,-0.3290963608\N,-0.946
 9197499,-1.088882349,-0.3584178299\N,-0.7968430721,-2.0984011608,-1.09
 01642984\\Version=ES64L-G09RevD.01\State=3-A\HF=-147.1979567\S2=2.0059
 09\S2-1=0.\S2A=2.000019\RMSD=3.015e-09\RMSF=6.303e-05\Dipole=0.1366213
 ,0.4850984,0.2677638\Quadrupole=-0.3313236,1.2845046,-0.953181,1.71841

 Normal termination of Gaussian 09 at Fri Oct 21 11:35:25 2016.

 -------------------------------------------------------
 #N Geom=AllCheck Guess=TCheck SCRF=Check HF/3-21G* Freq
 -------------------------------------------------------

 Structure from the checkpoint file:  "H3CN2cbs4m.chk"
 ----
 ired
 ----
 Charge =  1 Multiplicity = 3

 SCF Done:  E(UHF) =  -147.197956665     A.U. after    1 cycles

  Exact polarizability:  29.969  -1.591  15.978   0.000   0.000  17.284
 Approx polarizability:  24.906  -3.928  13.643   0.000   0.000  10.621

                      1                      2                      3
                      A                      A                      A
 Frequencies --    160.0857               363.0144               708.1958
 Red. masses --      1.7416                 4.2789                 9.1009
 Frc consts  --      0.0263                 0.3322                 2.6893
 IR Inten    --      0.2122                 4.4914                 1.0937
 Raman Activ --      1.7546                 1.5916                 7.4663

                      4                      5                      6
                      A                      A                      A
 Frequencies --   1145.3431              1171.8506              1527.2884
 Red. masses --      1.2595                 1.3839                 1.3632
 Frc consts  --      0.9735                 1.1197                 1.8734
 IR Inten    --     28.0418                25.1533                12.8223
 Raman Activ --      3.9305                43.8821                37.3413

                      7                      8                      9
                      A                      A                      A
 Frequencies --   1538.6678              1564.9630              1685.9510
 Red. masses --      1.0314                 1.1048                 3.1933
 Frc consts  --      1.4387                 1.5943                 5.3479
 IR Inten    --     73.6806                38.1355                62.7223
 Raman Activ --     56.8041                25.1676                27.4687

                     10                     11                     12
                      A                      A                      A
 Frequencies --   3118.8842              3264.3794              3312.1294
 Red. masses --      1.0422                 1.0811                 1.1053
 Frc consts  --      5.9729                 6.7878                 7.1441
 IR Inten    --    100.5098                40.9421                79.0387
 Raman Activ --    170.4156               157.8603                72.8099

 - Thermochemistry -
 -------------------
 Temperature   298.150 Kelvin.  Pressure   1.00000 Atm.
 Atom     1 has atomic number  6 and mass  12.00000

 Molecular mass:    43.02962 amu.
 Principal axes and moments of inertia in atomic units:
                           1         2         3
     Eigenvalues --    21.34221 179.72972 189.39828
           X            0.99993   0.01185   0.00000
           Y           -0.01185   0.99993   0.00000
           Z            0.00000   0.00000   1.00000
 This molecule is an asymmetric top.
 Rotational symmetry number  1.
 Rotational temperatures (Kelvin)      4.05833     0.48191     0.45731
 Rotational constants (GHZ):          84.56207    10.04142     9.52882
 Zero-point vibrational energy     116999.3 (Joules/Mol)
                                   27.96350 (Kcal/Mol)
 Warning -- explicit consideration of   2 degrees of freedom as
           vibrations may cause significant error
 Vibrational temperatures:    230.33   522.30  1018.93  1647.89  1686.03
          (Kelvin)           2197.42  2213.80  2251.63  2425.70  4487.37
                             4696.71  4765.41

 Zero-point correction=                           0.044563 (Hartree/Particle)
 Thermal correction to Energy=                    0.048532
 Thermal correction to Enthalpy=                  0.049476
 Thermal correction to Gibbs Free Energy=         0.018741
 Sum of electronic and zero-point Energies=           -147.153394
 Sum of electronic and thermal Energies=              -147.149425
 Sum of electronic and thermal Enthalpies=            -147.148481
 Sum of electronic and thermal Free Energies=         -147.179216

                     E (Thermal)             CV                S
                      KCal/Mol        Cal/Mol-Kelvin    Cal/Mol-Kelvin
 Total                   30.454             10.914             64.688
 Electronic               0.000              0.000              2.183
 Translational            0.889              2.981             37.204
 Rotational               0.889              2.981             21.213
 Vibrational             28.677              4.953              4.087
 Vibration     1          0.622              1.891              2.549
 Vibration     2          0.737              1.548              1.109

 Optimization completed.
    -- Stationary point found.

 1\1\GINC-TC-NODE158\Freq\UHF\3-21G*\C1H3N2(1+,3)\MAXB2\21-Oct-2016\0\\
 #N Geom=AllCheck Guess=TCheck SCRF=Check HF/3-21G* Freq\\ired\\1,3\C,-
 0.0428026241,0.0250074645,0.0192742677\H,0.0792183574,-0.0014381477,1.
 0930460203\H,0.9002486732,-0.175998423,-0.4932524332\H,-0.492059867,0.
 9444622418,-0.3290963608\N,-0.9469197499,-1.088882349,-0.3584178299\N,
 -0.7968430721,-2.0984011608,-1.0901642984\\Version=ES64L-G09RevD.01\St
 ate=3-A\HF=-147.1979567\S2=2.005909\S2-1=0.\S2A=2.000019\RMSD=3.904e-1
 0\RMSF=6.303e-05\ZeroPoint=0.0445627\Thermal=0.0485319\Dipole=0.136621

 Normal termination of Gaussian 09 at Fri Oct 21 11:35:28 2016.

 -----------------------------------------------------
 #N Geom=AllCheck Guess=TCheck SCRF=Check MP4SDQ/6-31G
 -----------------------------------------------------

 Structure from the checkpoint file:  "H3CN2cbs4m.chk"
 ----
 ired
 ----
 Charge =  1 Multiplicity = 3

 SCF Done:  E(UHF) =  -147.964662615     A.U. after   20 cycles
 E2 =    -0.2630501301D+00 EUMP2 =    -0.14822771274487D+03
 Normal termination of Gaussian 09 at Fri Oct 21 11:35:30 2016.

 ----------------------------------------------------------------------
 #N Geom=AllCheck Guess=TCheck SCRF=Check MP2/6-31+D** CBSExtrap=(NMin=
 5,MinPop)
 ----------------------------------------------------------------------

 Structure from the checkpoint file:  "H3CN2cbs4m.chk"
 ----
 ired
 ----
 Charge =  1 Multiplicity = 3

 SCF Done:  E(UHF) =  -148.049431368     A.U. after   22 cycles
 E2 =    -0.4030271890D+00 EUMP2 =    -0.14845245855724D+03
 E2(CBS)=      -0.508418 CBS-Int=       0.027809 OIii=       4.231884
 Normal termination of Gaussian 09 at Fri Oct 21 11:35:34 2016.

 Structure from the checkpoint file:  "H3CN2cbs4m.chk"
 ----
 ired
 ----
 Charge =  1 Multiplicity = 3

                         Standard orientation:
 ---------------------------------------------------------------------
 Center     Atomic      Atomic             Coordinates (Angstroms)
 Number     Number       Type             X           Y           Z
 ---------------------------------------------------------------------
      1          6           0       -1.151403   -0.107543   -0.000002
      2          1           0       -1.627387    0.254579   -0.900491
      3          1           0       -1.076955   -1.196988   -0.000002
      4          1           0       -1.627383    0.254571    0.900502
      5          7           0        0.247100    0.387451    0.000000
      6          7           0        1.358635   -0.197009    0.000000
 ---------------------------------------------------------------------

 SCF Done:  E(UHF) =  -148.090087125     A.U. after   17 cycles

 The electronic state is 3-A.
 Alpha  occ. eigenvalues --  -16.04817 -16.02802 -11.55048  -1.74582  -1.36751
 Alpha  occ. eigenvalues --   -1.14855  -1.04467  -0.95550  -0.92744  -0.85170
 Alpha  occ. eigenvalues --   -0.80733  -0.76637
 Alpha virt. eigenvalues --   -0.21304  -0.10530  -0.07037  -0.06505  -0.06318
 Alpha virt. eigenvalues --   -0.01909  -0.00953  -0.00482   0.00918   0.02739
 Alpha virt. eigenvalues --    0.03424   0.07818   0.07903   0.08240   0.08862

  Beta  occ. eigenvalues --  -16.01714 -15.99001 -11.54835  -1.61842  -1.31008
  Beta  occ. eigenvalues --   -1.02955  -0.91320  -0.89601  -0.85303  -0.78722
  Beta virt. eigenvalues --   -0.33035  -0.17362  -0.13247  -0.08449  -0.06434
  Beta virt. eigenvalues --   -0.06424  -0.05880  -0.00917  -0.00726   0.00243
  Beta virt. eigenvalues --    0.02445   0.02955   0.04410   0.08095   0.08896

 Mulliken charges and spin densities:
               1          2
     1  C   -0.348669   0.041518
     2  H    0.229533  -0.003129
     3  H    0.241025   0.070946
     4  H    0.229534  -0.003128
     5  N    0.294390   0.810824
     6  N    0.354188   1.082969
 Sum of Mulliken charges =   1.00000   2.00000

 Dipole moment (field-independent basis, Debye):
    X=             -1.4704    Y=              0.2559    Z=              0.0000  Tot=              1.4925
 Quadrupole moment (field-independent basis, Debye-Ang):
   XX=             -9.3285   YY=            -14.4264   ZZ=            -14.9199
   XY=              1.0134   XZ=              0.0000   YZ=              0.0000

 Normal termination of Gaussian 09 at Fri Oct 21 11:35:38 2016.
