 Gaussian 09, Revision D.01,
 Gaussian 09:  ES64L-G09RevD.01 24-Apr-2013

 -----------------------------------------------------------
 # mp2(full)/6-311g** scrf=(smd,solvent=water) geom=allcheck
 -----------------------------------------------------------

 Structure from the checkpoint file:  "H3CN2smd.chk"
 ----
 ired
 ----
 Charge =  1 Multiplicity = 3

                         Standard orientation:
 ---------------------------------------------------------------------
 Center     Atomic      Atomic             Coordinates (Angstroms)
 Number     Number       Type             X           Y           Z
 ---------------------------------------------------------------------
      1          6           0       -1.065949   -0.097900   -0.000056
      2          1           0       -1.599258    0.117409   -0.932424
      3          1           0       -0.825590   -1.223544    0.000180
      4          1           0       -1.599358    0.117286    0.932321
      5          7           0        0.208715    0.437227    0.000081
      6          7           0        1.279842   -0.212049   -0.000044
 ---------------------------------------------------------------------

 SCF Done:  E(UHF) =  -148.191836292     A.U. after   25 cycles
 E2 =    -0.4850564820D+00 EUMP2 =    -0.14867689277363D+03

 The electronic state is 3-A.
 Alpha  occ. eigenvalues --  -15.83187 -15.80649 -11.33621  -1.54024  -1.17409
 Alpha  occ. eigenvalues --   -0.93353  -0.82325  -0.74778  -0.72621  -0.61416
 Alpha  occ. eigenvalues --   -0.57961  -0.55561
 Alpha virt. eigenvalues --    0.00123   0.16356   0.20731   0.21965   0.27970
 Alpha virt. eigenvalues --    0.37331   0.44818   0.46103   0.59068   0.64225
 Alpha virt. eigenvalues --    0.67884   0.69809   0.71916   0.72202   0.74482

  Beta  occ. eigenvalues --  -15.80125 -15.77001 -11.33310  -1.42560  -1.10965
  Beta  occ. eigenvalues --   -0.80859  -0.70734  -0.69025  -0.60778  -0.55770
  Beta virt. eigenvalues --   -0.11752   0.04003   0.08578   0.18090   0.22137
  Beta virt. eigenvalues --    0.22948   0.29423   0.39709   0.45516   0.49900
  Beta virt. eigenvalues --    0.63736   0.68689   0.71790   0.73149   0.73545

 Mulliken charges and spin densities:
               1          2
     1  C   -0.111112   0.055119
     2  H    0.241112   0.005160
     3  H    0.252227   0.162136
     4  H    0.241118   0.005208
     5  N    0.160453   0.739501
     6  N    0.216202   1.032875
 Sum of Mulliken charges =   1.00000   2.00000

 Dipole moment (field-independent basis, Debye):
    X=             -2.1756    Y=             -0.0625    Z=              0.0003  Tot=              2.1765
 Quadrupole moment (field-independent basis, Debye-Ang):
   XX=            -10.8836   YY=            -14.3966   ZZ=            -14.6416
   XY=              1.3934   XZ=              0.0000   YZ=             -0.0006

 Normal termination of Gaussian 09 at Fri Oct 21 11:41:20 2016.
