 Gaussian 09, Revision D.01,
 Gaussian 09:  ES64L-G09RevD.01 24-Apr-2013

 --------------------------------------------------------------------
 # opt freq mp2(full)/6-311g** scrf=(smd,solvent=water) geom=allcheck
 --------------------------------------------------------------------

 Structure from the checkpoint file:  "H3CN2smd.chk"
 -------------------
 Title Card Required
 -------------------
 Charge =  1 Multiplicity = 1

 SCF Done:  E(RHF) =  -148.360922580     A.U. after   11 cycles
 E2 =    -0.5397947043D+00 EUMP2 =    -0.14890071728431D+03
 SCF Done:  E(RHF) =  -148.361445736     A.U. after   10 cycles
 E2 =    -0.5393538475D+00 EUMP2 =    -0.14890079958396D+03
 SCF Done:  E(RHF) =  -148.361471284     A.U. after    9 cycles
 E2 =    -0.5392696706D+00 EUMP2 =    -0.14890074095422D+03
 SCF Done:  E(RHF) =  -148.361504013     A.U. after   10 cycles
 E2 =    -0.5392706882D+00 EUMP2 =    -0.14890077470099D+03
 SCF Done:  E(RHF) =  -148.361452639     A.U. after   10 cycles
 E2 =    -0.5393129268D+00 EUMP2 =    -0.14890076556563D+03
 SCF Done:  E(RHF) =  -148.361500586     A.U. after   10 cycles
 E2 =    -0.5393358250D+00 EUMP2 =    -0.14890083641151D+03
 SCF Done:  E(RHF) =  -148.361449571     A.U. after   10 cycles
 E2 =    -0.5393380403D+00 EUMP2 =    -0.14890078761116D+03
 Optimization completed.
    -- Stationary point found.
 Normal termination of Gaussian 09 at Tue Oct 25 12:13:22 2016.

 ----------------------------------------------------------------------
 #N Geom=AllCheck Guess=TCheck SCRF=Check GenChk RMP2-Full/6-311G(d,p)
 Freq
 ----------------------------------------------------------------------

 Structure from the checkpoint file:  "H3CN2smd.chk"
 -------------------
 Title Card Required
 -------------------
 Charge =  1 Multiplicity = 1

                         Standard orientation:
 ---------------------------------------------------------------------
 Center     Atomic      Atomic             Coordinates (Angstroms)
 Number     Number       Type             X           Y           Z
 ---------------------------------------------------------------------
      1          6           0       -1.181639   -0.000111   -0.000148
      2          1           0       -1.477686    0.614338    0.847979
      3          1           0       -1.476320    0.426714   -0.956677
      4          1           0       -1.475478   -1.042604    0.108113
      5          7           0        0.264663    0.000567    0.000369
      6          7           0        1.380954   -0.000250   -0.000158
 ---------------------------------------------------------------------

 SCF Done:  E(RHF) =  -148.361449571     A.U. after    1 cycles
 E2 =    -0.5393380398D+00 EUMP2 =    -0.14890078761066D+03
 E2 =    -0.5393380398D+00 EUMP2 =    -0.14890078761066D+03

 The electronic state is 1-A.
 Alpha  occ. eigenvalues --  -15.81765 -15.80146 -11.34096  -1.56369  -1.15947
 Alpha  occ. eigenvalues --   -0.83506  -0.74183  -0.74058  -0.74054  -0.60415
 Alpha  occ. eigenvalues --   -0.60405
 Alpha virt. eigenvalues --    0.06925   0.06926   0.15496   0.22415   0.22418
 Alpha virt. eigenvalues --    0.25377   0.41309   0.43506   0.43515   0.57070
 Alpha virt. eigenvalues --    0.66877   0.69594   0.69601   0.74053   0.74063

 Mulliken charges:
               1
     1  C   -0.034251
     2  H    0.232956
     3  H    0.232866
     4  H    0.233068
     5  N    0.162427
     6  N    0.172934
 Sum of Mulliken charges =   1.00000

 Dipole moment (field-independent basis, Debye):
    X=             -2.4072    Y=             -0.0008    Z=              0.0005  Tot=              2.4072
 Quadrupole moment (field-independent basis, Debye-Ang):
   XX=             -9.9790   YY=            -14.4357   ZZ=            -14.4366
   XY=              0.0009   XZ=             -0.0008   YZ=              0.0000

  Exact polarizability:  35.371  -0.004  18.200  -0.006   0.001  18.194
 Approx polarizability:  28.629  -0.009  13.366  -0.007   0.000  13.363

                      1                      2                      3
                      A                      A                      A
 Frequencies --    333.5164               337.4890               799.7193
 Red. masses --      4.5330                 4.5785                 7.1502
 Frc consts  --      0.2971                 0.3073                 2.6943
 IR Inten    --      0.0603                 0.0674                 5.1639

                      4                      5                      6
                      A                      A                      A
 Frequencies --   1158.9597              1166.1239              1433.1596
 Red. masses --      1.3554                 1.3531                 1.1148
 Frc consts  --      1.0726                 1.0841                 1.3490
 IR Inten    --      4.5061                 4.8862                12.5900

                      7                      8                      9
                      A                      A                      A
 Frequencies --   1443.6739              1446.5841              2238.6545
 Red. masses --      1.0482                 1.0381                13.1440
 Frc consts  --      1.2871                 1.2800                38.8107
 IR Inten    --     34.7310                38.6877                 0.0046

                     10                     11                     12
                      A                      A                      A
 Frequencies --   3137.7118              3273.4531              3276.7220
 Red. masses --      1.0246                 1.1112                 1.1111
 Frc consts  --      5.9431                 7.0156                 7.0290
 IR Inten    --     37.7244                42.1740                40.9358

 - Thermochemistry -
 -------------------
 Temperature   298.150 Kelvin.  Pressure   1.00000 Atm.
 Atom     1 has atomic number  6 and mass  12.00000

 Molecular mass:    43.02962 amu.
 Principal axes and moments of inertia in atomic units:
                           1         2         3
     Eigenvalues --    11.84979 186.55495 186.55687
           X            1.00000   0.00001   0.00000
           Y           -0.00001   0.99999  -0.00335
           Z            0.00000   0.00335   0.99999
 This molecule is an asymmetric top.
 Rotational symmetry number  1.
 Rotational temperatures (Kelvin)      7.30931     0.46428     0.46428
 Rotational constants (GHZ):         152.30158     9.67405     9.67395
 Zero-point vibrational energy     119900.3 (Joules/Mol)
                                   28.65686 (Kcal/Mol)
 Warning -- explicit consideration of   2 degrees of freedom as
           vibrations may cause significant error
 Vibrational temperatures:    479.86   485.57  1150.62  1667.48  1677.79
          (Kelvin)           2061.99  2077.12  2081.31  3220.92  4514.46
                             4709.76  4714.47

 Zero-point correction=                           0.045668 (Hartree/Particle)
 Thermal correction to Energy=                    0.049392
 Thermal correction to Enthalpy=                  0.050336
 Thermal correction to Gibbs Free Energy=         0.021509
 Sum of electronic and zero-point Energies=           -148.855120
 Sum of electronic and thermal Energies=              -148.851396
 Sum of electronic and thermal Enthalpies=            -148.850452
 Sum of electronic and thermal Free Energies=         -148.879278

                     E (Thermal)             CV                S
                      KCal/Mol        Cal/Mol-Kelvin    Cal/Mol-Kelvin
 Total                   30.994             10.564             60.671
 Electronic               0.000              0.000              0.000
 Translational            0.889              2.981             37.204
 Rotational               0.889              2.981             20.650
 Vibrational             29.216              4.602              2.817
 Vibration     1          0.715              1.609              1.243
 Vibration     2          0.718              1.601              1.224

 Normal termination of Gaussian 09 at Tue Oct 25 12:13:41 2016.
