 Gaussian 09, Revision D.01,
 Gaussian 09:  ES64L-G09RevD.01 24-Apr-2013

 ----------------------
 # cbs-4m geom=allcheck
 ----------------------

 Structure from the checkpoint file:  "H3CN2cbs4m.chk"
 -------------------
 Title Card Required
 -------------------
 Charge =  1 Multiplicity = 1

 SCF Done:  E(RHF) =  -147.360537703     A.U. after   11 cycles
 SCF Done:  E(RHF) =  -147.366733842     A.U. after   11 cycles
 SCF Done:  E(RHF) =  -147.367072147     A.U. after   10 cycles
 SCF Done:  E(RHF) =  -147.367290159     A.U. after    9 cycles
 SCF Done:  E(RHF) =  -147.367316344     A.U. after    9 cycles
 Optimization completed.
    -- Stationary point found.
 Normal termination of Gaussian 09 at Tue Oct 25 12:09:30 2016.

 -------------------------------------------------------
 #N Geom=AllCheck Guess=TCheck SCRF=Check HF/3-21G* Freq
 -------------------------------------------------------

 Structure from the checkpoint file:  "H3CN2cbs4m.chk"
 -------------------
 Title Card Required
 -------------------
 Charge =  1 Multiplicity = 1

 SCF Done:  E(RHF) =  -147.367316344     A.U. after    1 cycles

  Exact polarizability:  12.448   0.000  12.448   0.000   0.000  24.961
 Approx polarizability:  10.235   0.000  10.235   0.000   0.000  24.347

                      1                      2                      3
                      E                      E                     A1
 Frequencies --    398.5414               398.5414               565.7696
 Red. masses --      5.0231                 5.0231                 9.1753
 Frc consts  --      0.4701                 0.4701                 1.7304
 IR Inten    --      4.0150                 4.0150                67.7339
 Raman Activ --      3.7954                 3.7954                 0.0104

                      4                      5                      6
                      E                      E                     A1
 Frequencies --   1260.7182              1260.7182              1559.4969
 Red. masses --      1.3022                 1.3022                 1.1019
 Frc consts  --      1.2194                 1.2194                 1.5789
 IR Inten    --      0.0250                 0.0250                 3.6893
 Raman Activ --      0.6684                 0.6684                 7.9984

                      7                      8                      9
                      E                      E                     A1
 Frequencies --   1590.4249              1590.4249              2673.1964
 Red. masses --      1.0394                 1.0394                13.2641
 Frc consts  --      1.5491                 1.5491                55.8456
 IR Inten    --     41.0913                41.0913                45.8590
 Raman Activ --     14.1523                14.1523                35.3391

                     10                     11                     12
                     A1                      E                      E
 Frequencies --   3233.1881              3365.9897              3365.9897
 Red. masses --      1.0212                 1.1133                 1.1133
 Frc consts  --      6.2894                 7.4317                 7.4317
 IR Inten    --     20.7191                32.7187                32.7187
 Raman Activ --     98.0010                40.3351                40.3351

 - Thermochemistry -
 -------------------
 Temperature   298.150 Kelvin.  Pressure   1.00000 Atm.
 Atom     1 has atomic number  6 and mass  12.00000

 Molecular mass:    43.02962 amu.
 Principal axes and moments of inertia in atomic units:
                           1         2         3
     Eigenvalues --    11.73630 194.63117 194.63117
           X            0.00000   0.84654   0.53233
           Y            0.00000  -0.53233   0.84654
           Z            1.00000   0.00000   0.00000
 This molecule is a prolate symmetric top.
 Rotational symmetry number  3.
 Rotational temperatures (Kelvin)      7.37999     0.44502     0.44502
 Rotational constants (GHZ):         153.77428     9.27262     9.27262
 Zero-point vibrational energy     127181.0 (Joules/Mol)
                                   30.39698 (Kcal/Mol)
 Warning -- explicit consideration of   3 degrees of freedom as
           vibrations may cause significant error
 Vibrational temperatures:    573.41   573.41   814.02  1813.89  1813.89
          (Kelvin)           2243.77  2288.26  2288.26  3846.13  4651.83
                             4842.90  4842.90

 Zero-point correction=                           0.048441 (Hartree/Particle)
 Thermal correction to Energy=                    0.052111
 Thermal correction to Enthalpy=                  0.053056
 Thermal correction to Gibbs Free Energy=         0.025363
 Sum of electronic and zero-point Energies=           -147.318876
 Sum of electronic and thermal Energies=              -147.315205
 Sum of electronic and thermal Enthalpies=            -147.314261
 Sum of electronic and thermal Free Energies=         -147.341953

                     E (Thermal)             CV                S
                      KCal/Mol        Cal/Mol-Kelvin    Cal/Mol-Kelvin
 Total                   32.700             10.521             58.284
 Electronic               0.000              0.000              0.000
 Translational            0.889              2.981             37.204
 Rotational               0.889              2.981             18.541
 Vibrational             30.923              4.559              2.538
 Vibration     1          0.765              1.473              0.968
 Vibration     2          0.765              1.473              0.968
 Vibration     3          0.922              1.105              0.512

 Optimization completed.
    -- Stationary point found.
 Normal termination of Gaussian 09 at Tue Oct 25 12:09:33 2016.

 -----------------------------------------------------
 #N Geom=AllCheck Guess=TCheck SCRF=Check MP4SDQ/6-31G
 -----------------------------------------------------

 Structure from the checkpoint file:  "H3CN2cbs4m.chk"
 -------------------
 Title Card Required
 -------------------
 Charge =  1 Multiplicity = 1

 SCF Done:  E(RHF) =  -148.128387914     A.U. after   10 cycles
 E2 =    -0.3180483763D+00 EUMP2 =    -0.14844643629001D+03
 Normal termination of Gaussian 09 at Tue Oct 25 12:09:34 2016.

 ----------------------------------------------------------------------
 #N Geom=AllCheck Guess=TCheck SCRF=Check MP2/6-31+D** CBSExtrap=(NMin=
 5,MinPop)
 ----------------------------------------------------------------------

 Structure from the checkpoint file:  "H3CN2cbs4m.chk"
 -------------------
 Title Card Required
 -------------------
 Charge =  1 Multiplicity = 1

 SCF Done:  E(RHF) =  -148.223543928     A.U. after   11 cycles
 E2 =    -0.4529891379D+00 EUMP2 =    -0.14867653306637D+03
 E2(CBS)=      -0.560693 CBS-Int=       0.029718 OIii=       4.842847
 Normal termination of Gaussian 09 at Tue Oct 25 12:09:36 2016.

 -----------------------------------------------------------
 #N Geom=AllCheck Guess=TCheck SCRF=Check HF/CBSB1 SCF=Tight
 -----------------------------------------------------------

 Structure from the checkpoint file:  "H3CN2cbs4m.chk"
 -------------------
 Title Card Required
 -------------------
 Charge =  1 Multiplicity = 1

                         Standard orientation:
 ---------------------------------------------------------------------
 Center     Atomic      Atomic             Coordinates (Angstroms)
 Number     Number       Type             X           Y           Z
 ---------------------------------------------------------------------
      1          6           0        0.000000    0.000000   -1.229402
      2          1           0        0.000000    1.042590   -1.504833
      3          1           0        0.902909   -0.521295   -1.504833
      4          1           0       -0.902909   -0.521295   -1.504833
      5          7           0        0.000000    0.000000    0.310265
      6          7           0        0.000000    0.000000    1.388436
 ---------------------------------------------------------------------

 SCF Done:  E(RHF) =  -148.266949210     A.U. after   10 cycles

 The electronic state is 1-A1.
 Alpha  occ. eigenvalues --  -16.00487 -15.99312 -11.57399  -1.79169  -1.34469
 Alpha  occ. eigenvalues --   -1.05050  -0.95530  -0.95530  -0.94330  -0.84465
 Alpha  occ. eigenvalues --   -0.84465
 Alpha virt. eigenvalues --   -0.12081  -0.12081  -0.11408  -0.06875  -0.06598
 Alpha virt. eigenvalues --   -0.06598  -0.02353  -0.00861  -0.00861   0.01106
 Alpha virt. eigenvalues --    0.02553   0.02553   0.05229   0.10157   0.10157

 Mulliken charges:
               1
     1  C   -0.548528
     2  H    0.251469
     3  H    0.251469
     4  H    0.251469
     5  N    0.180458
     6  N    0.613662
 Sum of Mulliken charges =   1.00000

 Dipole moment (field-independent basis, Debye):
    X=              0.0000    Y=              0.0000    Z=             -2.2680  Tot=              2.2680
 Quadrupole moment (field-independent basis, Debye-Ang):
   XX=            -14.3805   YY=            -14.3805   ZZ=             -8.5870
   XY=              0.0000   XZ=              0.0000   YZ=              0.0000

 Normal termination of Gaussian 09 at Tue Oct 25 12:09:39 2016.
