 Gaussian 09, Revision D.01,
 Gaussian 09:  ES64L-G09RevD.01 24-Apr-2013

 -----------------------------------
 # opt freq=raman MP2(full)/6-311G**
 -----------------------------------

 -------------------
 Title Card Required
 -------------------
 Symbolic Z-matrix:
 Charge =  0 Multiplicity = 1

 SCF Done:  E(RHF) =  -108.970345627     A.U. after    9 cycles
 E2 =    -0.3619390892D+00 EUMP2 =    -0.10933228471659D+03
 SCF Done:  E(RHF) =  -108.966141402     A.U. after    7 cycles
 E2 =    -0.3678248358D+00 EUMP2 =    -0.10933396623744D+03
 SCF Done:  E(RHF) =  -108.964340996     A.U. after    7 cycles
 E2 =    -0.3697209424D+00 EUMP2 =    -0.10933406193795D+03
 Optimization completed.
    -- Stationary point found.
 Normal termination of Gaussian 09 at Fri Oct 21 11:17:17 2016.

 ----------------------------------------------------------------------
 #N Geom=AllCheck Guess=TCheck SCRF=Check GenChk RMP2-Full/6-311G(d,p)
 Freq
 ----------------------------------------------------------------------

 Structure from the checkpoint file:  "n2-gasopt.chk"
 -------------------
 Title Card Required
 -------------------
 Charge =  0 Multiplicity = 1

                         Standard orientation:
 ---------------------------------------------------------------------
 Center     Atomic      Atomic             Coordinates (Angstroms)
 Number     Number       Type             X           Y           Z
 ---------------------------------------------------------------------
      1          7           0        0.000000    0.000000    0.559523
      2          7           0        0.000000    0.000000   -0.559523
 ---------------------------------------------------------------------

 SCF Done:  E(RHF) =  -108.964340996     A.U. after    1 cycles
 E2 =    -0.3697209425D+00 EUMP2 =    -0.10933406193805D+03
 E2 =    -0.3697209425D+00 EUMP2 =    -0.10933406193805D+03
 SCF Done:  E(RHF) =  -108.964341316     A.U. after    6 cycles
 E2 =    -0.3697209609D+00 EUMP2 =    -0.10933406227736D+03
 E2 =    -0.3697209609D+00 EUMP2 =    -0.10933406227736D+03
 SCF Done:  E(RHF) =  -108.964341316     A.U. after    6 cycles
 E2 =    -0.3697209609D+00 EUMP2 =    -0.10933406227736D+03
 E2 =    -0.3697209609D+00 EUMP2 =    -0.10933406227736D+03
 SCF Done:  E(RHF) =  -108.964341816     A.U. after    7 cycles
 E2 =    -0.3697208566D+00 EUMP2 =    -0.10933406267249D+03
 E2 =    -0.3697208566D+00 EUMP2 =    -0.10933406267249D+03

 Alpha  occ. eigenvalues --  -15.68937 -15.68624  -1.45831  -0.78356  -0.62988
 Alpha  occ. eigenvalues --   -0.60349  -0.60349
 Alpha virt. eigenvalues --    0.15516   0.15516   0.54891   0.68837   0.71114
 Alpha virt. eigenvalues --    0.71114   0.81170   0.89151   0.89151   0.99815
 Alpha virt. eigenvalues --    1.35199   1.97167   1.97167   1.99202   1.99202

 Mulliken charges:
               1
     1  N   -0.001096
     2  N    0.001096
 Sum of Mulliken charges =   0.00000

 Dipole moment (field-independent basis, Debye):
    X=              0.0000    Y=              0.0000    Z=             -0.0112  Tot=              0.0112
 Quadrupole moment (field-independent basis, Debye-Ang):
   XX=            -10.0994   YY=            -10.0994   ZZ=            -11.9813
   XY=              0.0000   XZ=              0.0000   YZ=              0.0000

  Exact polarizability:   6.107   0.000   6.107   0.000   0.000  13.218
 Approx polarizability:   5.511   0.000   5.511   0.000   0.000  17.005

                      1
                     SGG
 Frequencies --   2185.3678
 Red. masses --     14.0031
 Frc consts  --     39.4024
 IR Inten    --      0.0000
 Raman Activ --      7.8493

 - Thermochemistry -
 -------------------
 Temperature   298.150 Kelvin.  Pressure   1.00000 Atm.
 Atom     1 has atomic number  7 and mass  14.00307

 Molecular mass:    28.00615 amu.
 Principal axes and moments of inertia in atomic units:
                           1         2         3
     Eigenvalues --     0.00000  31.31034  31.31034
           X            0.00000   1.00000   0.00000
           Y            0.00000   0.00000   1.00000
           Z            1.00000   0.00000   0.00000
 This molecule is a prolate symmetric top.
 Rotational symmetry number  2.
 Rotational temperature (Kelvin)      2.76630
 Rotational constant (GHZ):          57.640429
 Zero-point vibrational energy      13071.4 (Joules/Mol)
                                    3.12414 (Kcal/Mol)
 Vibrational temperatures:   3144.25
          (Kelvin)

 Zero-point correction=                           0.004979 (Hartree/Particle)
 Thermal correction to Energy=                    0.007339
 Thermal correction to Enthalpy=                  0.008284
 Thermal correction to Gibbs Free Energy=        -0.013494
 Sum of electronic and zero-point Energies=           -109.329083
 Sum of electronic and thermal Energies=              -109.326723
 Sum of electronic and thermal Enthalpies=            -109.325778
 Sum of electronic and thermal Free Energies=         -109.347556

                     E (Thermal)             CV                S
                      KCal/Mol        Cal/Mol-Kelvin    Cal/Mol-Kelvin
 Total                    4.606              4.974             45.835
 Electronic               0.000              0.000              0.000
 Translational            0.889              2.981             35.924
 Rotational               0.592              1.987              9.910
 Vibrational              3.124              0.006              0.001

 Optimization completed.
    -- Stationary point found.
 Normal termination of Gaussian 09 at Fri Oct 21 11:17:40 2016.
