 Gaussian 09, Revision D.01,
 Gaussian 09:  ES64L-G09RevD.01 24-Apr-2013

 -----------------------------
 # opt freq mp2(full)/6-311g**
 -----------------------------

 -------------------
 Title Card Required
 -------------------
 Symbolic Z-matrix:
 Charge =  0 Multiplicity = 1

 SCF Done:  E(RHF) =  -108.971947136     A.U. after    9 cycles
 E2 =    -0.3559107281D+00 EUMP2 =    -0.10932785786445D+03
 SCF Done:  E(RHF) =  -108.967819545     A.U. after    8 cycles
 E2 =    -0.3658246214D+00 EUMP2 =    -0.10933364416635D+03
 SCF Done:  E(RHF) =  -108.964327783     A.U. after    7 cycles
 E2 =    -0.3697341494D+00 EUMP2 =    -0.10933406193200D+03
 Optimization completed.
    -- Stationary point found.
 Normal termination of Gaussian 09 at Tue Oct 25 11:17:01 2016.

 ----------------------------------------------------------------------
 #N Geom=AllCheck Guess=TCheck SCRF=Check GenChk RMP2-Full/6-311G(d,p)
 Freq
 ----------------------------------------------------------------------

 Structure from the checkpoint file:  "N2opt.chk"
 -------------------
 Title Card Required
 -------------------
 Charge =  0 Multiplicity = 1

                         Standard orientation:
 ---------------------------------------------------------------------
 Center     Atomic      Atomic             Coordinates (Angstroms)
 Number     Number       Type             X           Y           Z
 ---------------------------------------------------------------------
      1          7           0        0.000000    0.000000    0.559546
      2          7           0        0.000000    0.000000   -0.559546
 ---------------------------------------------------------------------

 SCF Done:  E(RHF) =  -108.964327783     A.U. after    1 cycles
 E2 =    -0.3697341496D+00 EUMP2 =    -0.10933406193220D+03
 E2 =    -0.3697341496D+00 EUMP2 =    -0.10933406193220D+03

 The electronic state is 1-SGG.
 Alpha  occ. eigenvalues --  -15.68939 -15.68626  -1.45827  -0.78358  -0.62988
 Alpha  occ. eigenvalues --   -0.60347  -0.60347
 Alpha virt. eigenvalues --    0.15514   0.15514   0.54890   0.68837   0.71115
 Alpha virt. eigenvalues --    0.71115   0.81169   0.89150   0.89150   0.99811
 Alpha virt. eigenvalues --    1.35193   1.97169   1.97169   1.99198   1.99198

 Mulliken charges:
               1
     1  N    0.000000
     2  N    0.000000
 Sum of Mulliken charges =   0.00000

 Dipole moment (field-independent basis, Debye):
    X=              0.0000    Y=              0.0000    Z=              0.0000  Tot=              0.0000
 Quadrupole moment (field-independent basis, Debye-Ang):
   XX=            -10.3130   YY=            -10.3130   ZZ=            -11.8431
   XY=              0.0000   XZ=              0.0000   YZ=              0.0000

  Exact polarizability:   6.107   0.000   6.107   0.000   0.000  13.219
 Approx polarizability:   5.511   0.000   5.511   0.000   0.000  17.007

                      1
                     SGG
 Frequencies --   2184.9728
 Red. masses --     14.0031
 Frc consts  --     39.3882
 IR Inten    --      0.0000

 - Thermochemistry -
 -------------------
 Temperature   298.150 Kelvin.  Pressure   1.00000 Atm.
 Atom     1 has atomic number  7 and mass  14.00307

 Molecular mass:    28.00615 amu.
 Principal axes and moments of inertia in atomic units:
                           1         2         3
     Eigenvalues --     0.00000  31.31284  31.31284
           X            0.00000   1.00000   0.00000
           Y            0.00000   0.00000   1.00000
           Z            1.00000   0.00000   0.00000
 This molecule is a prolate symmetric top.
 Rotational symmetry number  2.
 Rotational temperature (Kelvin)      2.76608
 Rotational constant (GHZ):          57.635825
 Zero-point vibrational energy      13069.0 (Joules/Mol)
                                    3.12358 (Kcal/Mol)
 Vibrational temperatures:   3143.68
          (Kelvin)

 Zero-point correction=                           0.004978 (Hartree/Particle)
 Thermal correction to Energy=                    0.007338
 Thermal correction to Enthalpy=                  0.008283
 Thermal correction to Gibbs Free Energy=        -0.013495
 Sum of electronic and zero-point Energies=           -109.329084
 Sum of electronic and thermal Energies=              -109.326723
 Sum of electronic and thermal Enthalpies=            -109.325779
 Sum of electronic and thermal Free Energies=         -109.347557

                     E (Thermal)             CV                S
                      KCal/Mol        Cal/Mol-Kelvin    Cal/Mol-Kelvin
 Total                    4.605              4.974             45.835
 Electronic               0.000              0.000              0.000
 Translational            0.889              2.981             35.924
 Rotational               0.592              1.987              9.910
 Vibrational              3.124              0.006              0.001

 Optimization completed.
    -- Stationary point found.
 Normal termination of Gaussian 09 at Tue Oct 25 11:17:07 2016.
