 Gaussian 09, Revision D.01,
 Gaussian 09:  ES64L-G09RevD.01 24-Apr-2013

 ----------------------
 # g4 geom=connectivity
 ----------------------

 -------------------
 Title Card Required
 -------------------
 Symbolic Z-matrix:
 Charge =  0 Multiplicity = 1

 SCF Done:  E(RB3LYP) =  -109.528048156     A.U. after    8 cycles
 SCF Done:  E(RB3LYP) =  -109.529134629     A.U. after    7 cycles
 SCF Done:  E(RB3LYP) =  -109.529142297     A.U. after    6 cycles
 Optimization completed.
    -- Stationary point found.
 Normal termination of Gaussian 09 at Fri Oct 21 11:57:43 2016.

 ----------------------------------------------------------
 #N Geom=AllCheck Guess=TCheck SCRF=Check B3LYP/GTBas3 Freq
 ----------------------------------------------------------

 Structure from the checkpoint file:  "/home/rjw7c5/n2_g4_gas.chk"
 -------------------
 Title Card Required
 -------------------
 Charge =  0 Multiplicity = 1

 SCF Done:  E(RB3LYP) =  -109.529142297     A.U. after    1 cycles

  Exact polarizability:   7.519   0.000   7.519   0.000   0.000  13.203
 Approx polarizability:  10.608   0.000  10.608   0.000   0.000  26.503

                      1
                     SGG
 Frequencies --   2430.9696
 Red. masses --     14.0031
 Frc consts  --     48.7565
 IR Inten    --      0.0000

 - Thermochemistry -
 -------------------
 Temperature   298.150 Kelvin.  Pressure   1.00000 Atm.
 Atom     1 has atomic number  7 and mass  14.00307

 Molecular mass:    28.00615 amu.
 Principal axes and moments of inertia in atomic units:
                           1         2         3
     Eigenvalues --     0.00000  30.18740  30.18740
           X            0.00000   0.00000   1.00000
           Y            0.00000   1.00000   0.00000
           Z            1.00000   0.00000   0.00000
 This molecule is a prolate symmetric top.
 Rotational symmetry number  2.
 Rotational temperature (Kelvin)      2.86920
 Rotational constant (GHZ):          59.784592
 Zero-point vibrational energy      14540.4 (Joules/Mol)
                                    3.47525 (Kcal/Mol)
 Vibrational temperatures:   3497.62
          (Kelvin)

 Zero-point correction=                           0.005538 (Hartree/Particle)
 Thermal correction to Energy=                    0.007899
 Thermal correction to Enthalpy=                  0.008843
 Thermal correction to Gibbs Free Energy=        -0.012900
 Sum of electronic and zero-point Energies=           -109.523604
 Sum of electronic and thermal Energies=              -109.521244
 Sum of electronic and thermal Enthalpies=            -109.520299
 Sum of electronic and thermal Free Energies=         -109.542042

                     E (Thermal)             CV                S
                      KCal/Mol        Cal/Mol-Kelvin    Cal/Mol-Kelvin
 Total                    4.957              4.970             45.762
 Electronic               0.000              0.000              0.000
 Translational            0.889              2.981             35.924
 Rotational               0.592              1.987              9.837
 Vibrational              3.475              0.002              0.000

 Optimization completed.
    -- Stationary point found.
 Normal termination of Gaussian 09 at Fri Oct 21 11:57:49 2016.

 -----------------------------------------------------------------
 #N Geom=AllCheck Guess=TCheck SCRF=Check CCSD(T,E4T,FrzG4)/GTBas1
 -----------------------------------------------------------------

 Structure from the checkpoint file:  "/home/rjw7c5/n2_g4_gas.chk"
 -------------------
 Title Card Required
 -------------------
 Charge =  0 Multiplicity = 1

 SCF Done:  E(RHF) =  -108.942515477     A.U. after    8 cycles
 E2 =    -0.3102709088D+00 EUMP2 =    -0.10925278638579D+03
 CCSD(T)= -0.10926732874D+03
 6\CCSD(T)=-109.2673287\RMSD=6.148e-09\PG=D*H [C*(N1.N1)]\\@
 Normal termination of Gaussian 09 at Fri Oct 21 11:57:54 2016.

 ---------------------------------------------------------
 #N Geom=AllCheck Guess=TCheck SCRF=Check MP4=FrzG4/GTBas2
 ---------------------------------------------------------

 Structure from the checkpoint file:  "/home/rjw7c5/n2_g4_gas.chk"
 -------------------
 Title Card Required
 -------------------
 Charge =  0 Multiplicity = 1

 SCF Done:  E(RHF) =  -108.945575228     A.U. after    8 cycles
 E2 =    -0.3138795580D+00 EUMP2 =    -0.10925945478604D+03
 Normal termination of Gaussian 09 at Fri Oct 21 11:57:57 2016.

 ---------------------------------------------------------
 #N Geom=AllCheck Guess=TCheck SCRF=Check MP4=FrzG4/GTBas3
 ---------------------------------------------------------

 Structure from the checkpoint file:  "/home/rjw7c5/n2_g4_gas.chk"
 -------------------
 Title Card Required
 -------------------
 Charge =  0 Multiplicity = 1

 SCF Done:  E(RHF) =  -108.952826147     A.U. after    8 cycles
 E2 =    -0.3548716963D+00 EUMP2 =    -0.10930769784348D+03
 Normal termination of Gaussian 09 at Fri Oct 21 11:58:01 2016.

 -----------------------------------------------------------
 #N Geom=AllCheck Guess=TCheck SCRF=Check MP2=Full/GTLargeXP
 -----------------------------------------------------------

 Structure from the checkpoint file:  "/home/rjw7c5/n2_g4_gas.chk"
 -------------------
 Title Card Required
 -------------------
 Charge =  0 Multiplicity = 1

 SCF Done:  E(RHF) =  -108.981644176     A.U. after    9 cycles
 E2 =    -0.4659839778D+00 EUMP2 =    -0.10944762815333D+03
 Normal termination of Gaussian 09 at Fri Oct 21 11:58:04 2016.
 SCF Done:  E(RHF) =  -108.991224666     A.U. after    8 cycles
 Normal termination of Gaussian 09 at Fri Oct 21 11:58:09 2016.

                         Standard orientation:
 ---------------------------------------------------------------------
 Center     Atomic      Atomic             Coordinates (Angstroms)
 Number     Number       Type             X           Y           Z
 ---------------------------------------------------------------------
      1          7           0        0.000000    0.000000    0.549398
      2          7           0        0.000000    0.000000   -0.549398
 ---------------------------------------------------------------------

 SCF Done:  E(RHF) =  -108.992691127     A.U. after    6 cycles

 The electronic state is 1-SGG.
 Alpha  occ. eigenvalues --  -15.68349 -15.67997  -1.47020  -0.77953  -0.63437
 Alpha  occ. eigenvalues --   -0.61372  -0.61372
 Alpha virt. eigenvalues --    0.06567   0.08573   0.08573   0.08680   0.10247
 Alpha virt. eigenvalues --    0.10247   0.13449   0.17455   0.17455   0.22442
 Alpha virt. eigenvalues --    0.38949   0.38949   0.39946   0.40046   0.49750

 Mulliken charges:
               1
     1  N    0.000000
     2  N    0.000000
 Sum of Mulliken charges =   0.00000

 Dipole moment (field-independent basis, Debye):
    X=              0.0000    Y=              0.0000    Z=              0.0000  Tot=              0.0000
 Quadrupole moment (field-independent basis, Debye-Ang):
   XX=            -10.3815   YY=            -10.3815   ZZ=            -11.6468
   XY=              0.0000   XZ=              0.0000   YZ=              0.0000

 Normal termination of Gaussian 09 at Fri Oct 21 11:58:18 2016.
