 Gaussian 09, Revision D.01,
 Gaussian 09:  ES64L-G09RevD.01 24-Apr-2013

 -----------------------------------------------------------
 # mp2(full)/6-311g** scrf=(smd,solvent=water) geom=allcheck
 -----------------------------------------------------------

 Structure from the checkpoint file:  "N2smdspe.chk"
 -------------------
 Title Card Required
 -------------------
 Charge =  0 Multiplicity = 1

                         Standard orientation:
 ---------------------------------------------------------------------
 Center     Atomic      Atomic             Coordinates (Angstroms)
 Number     Number       Type             X           Y           Z
 ---------------------------------------------------------------------
      1          7           0        0.000000    0.000000    0.559546
      2          7           0        0.000000    0.000000   -0.559546
 ---------------------------------------------------------------------

 SCF Done:  E(RHF) =  -108.964859090     A.U. after    9 cycles
 E2 =    -0.3699744571D+00 EUMP2 =    -0.10933483354743D+03

 The electronic state is 1-SGG.
 Alpha  occ. eigenvalues --  -15.68689 -15.68376  -1.45493  -0.78185  -0.62845
 Alpha  occ. eigenvalues --   -0.60014  -0.60014
 Alpha virt. eigenvalues --    0.15759   0.15759   0.54604   0.68888   0.71538
 Alpha virt. eigenvalues --    0.71538   0.81437   0.89367   0.89367   1.00084
 Alpha virt. eigenvalues --    1.35408   1.97487   1.97487   1.99439   1.99439

 Mulliken charges:
               1
     1  N    0.000000
     2  N    0.000000
 Sum of Mulliken charges =   0.00000

 Dipole moment (field-independent basis, Debye):
    X=              0.0000    Y=              0.0000    Z=              0.0000  Tot=              0.0000
 Quadrupole moment (field-independent basis, Debye-Ang):
   XX=            -10.3052   YY=            -10.3052   ZZ=            -11.8989
   XY=              0.0000   XZ=              0.0000   YZ=              0.0000

 Normal termination of Gaussian 09 at Tue Oct 25 12:14:46 2016.
