 Gaussian 09, Revision D.01,

 ----------------------------------------------------------------------
 # td=(triplet,nstates=40,root=1) 6-311+g(3df,2pd) geom=allcheck svwn5
 pop=orbitals=6
 ----------------------------------------------------------------------

 Structure from the checkpoint file:  "LDAtrip-Benz-xs1.chk"
 -------
 Benzene
 -------
 Charge =  0 Multiplicity = 1

 SCF Done:  E(RS-VWN5) =  -230.172461956     A.U. after   10 cycles
 Normal termination of Gaussian 09 at Fri Jul 29 12:05:34 2016.

 ----------------------------------------------------------------------
 # td=(triplet,nstates=40,root=2) 6-311+g(3df,2pd) geom=allcheck svwn5
 pop=orbitals=6
 ----------------------------------------------------------------------

 Structure from the checkpoint file:  "LDAtrip-Benz-xs2.chk"
 -------
 Benzene
 -------
 Charge =  0 Multiplicity = 1

 SCF Done:  E(RS-VWN5) =  -230.172461956     A.U. after   10 cycles

 Excitation energies and oscillator strengths:

 Excited State   1:      Triplet-A      4.4668 eV  277.57 nm  f=0.0000  <S**2>=2.000
      20 -> 22         0.16063
      20 -> 23         0.47180
      21 -> 22         0.47428
      21 -> 23        -0.16089

 Excited State   2:      Triplet-A      4.8101 eV  257.76 nm  f=0.0000  <S**2>=2.000
      20 -> 22         0.27012
      20 -> 23         0.42210
      21 -> 22        -0.42010
      21 -> 23         0.26907
 This state for optimization and/or second-order correction.
 Total Energy, E(TD-HF/TD-KS) =  -229.995692251
 Copying the excited state density for this state as the 1-particle RhoCI density.

 Excited State   3:      Triplet-A      4.8102 eV  257.75 nm  f=0.0000  <S**2>=2.000
      20 -> 22         0.42025
      20 -> 23        -0.26990
      21 -> 22         0.26929
      21 -> 23         0.42195

 Excited State   4:      Triplet-A      5.0582 eV  245.12 nm  f=0.0000  <S**2>=2.000
      20 -> 22         0.47390
      20 -> 23        -0.16141
      21 -> 22        -0.16036
      21 -> 23        -0.47289

 Excited State   5:      Triplet-A      6.2826 eV  197.35 nm  f=0.0000  <S**2>=2.000
      21 -> 24         0.70676

 Excited State   6:      Triplet-A      6.2837 eV  197.31 nm  f=0.0000  <S**2>=2.000
      20 -> 24         0.70676

 Excited State   7:      Triplet-A      6.7192 eV  184.52 nm  f=0.0000  <S**2>=2.000
      18 -> 22        -0.35525
      18 -> 23        -0.33249
      19 -> 22        -0.35125
      19 -> 23         0.35850

 Excited State   8:      Triplet-A      6.7460 eV  183.79 nm  f=0.0000  <S**2>=2.000
      18 -> 22         0.39206
      18 -> 23        -0.29338
      19 -> 22         0.29668
      19 -> 23         0.40706

 Excited State   9:      Triplet-A      6.7460 eV  183.79 nm  f=0.0000  <S**2>=2.000
      18 -> 22         0.30558
      18 -> 23         0.40071
      19 -> 22        -0.39814
      19 -> 23         0.28466

 Excited State  10:      Triplet-A      6.7760 eV  182.97 nm  f=0.0000  <S**2>=2.000
      18 -> 22        -0.34694
      18 -> 23         0.36976
      19 -> 22         0.35217
      19 -> 23         0.34419

 Excited State  11:      Triplet-A      6.8940 eV  179.84 nm  f=0.0000  <S**2>=2.000
      20 -> 25         0.32997
      20 -> 26         0.35320
      21 -> 25         0.37439
      21 -> 26        -0.33860

 Excited State  12:      Triplet-A      6.9211 eV  179.14 nm  f=0.0000  <S**2>=2.000
      20 -> 25         0.38739
      20 -> 26        -0.29448
      21 -> 25         0.30356
      21 -> 26         0.40600

 Excited State  13:      Triplet-A      6.9211 eV  179.14 nm  f=0.0000  <S**2>=2.000
      20 -> 25         0.31036
      20 -> 26         0.40119
      21 -> 25        -0.39193
      21 -> 26         0.28789

 Excited State  14:      Triplet-A      6.9475 eV  178.46 nm  f=0.0000  <S**2>=2.000
      20 -> 25         0.37273
      20 -> 26        -0.34834
      21 -> 25        -0.32828
      21 -> 26        -0.36310

 Excited State  15:      Triplet-A      7.5310 eV  164.63 nm  f=0.0000  <S**2>=2.000
      17 -> 22         0.67388
      21 -> 35         0.18620

 Excited State  16:      Triplet-A      7.5316 eV  164.62 nm  f=0.0000  <S**2>=2.000
      17 -> 23         0.67388
      20 -> 35         0.18606

 Excited State  17:      Triplet-A      7.5334 eV  164.58 nm  f=0.0000  <S**2>=2.000
      20 -> 27        -0.31530
      20 -> 28         0.35989
      21 -> 27         0.39653
      21 -> 28         0.33673

 Excited State  18:      Triplet-A      7.5475 eV  164.27 nm  f=0.0000  <S**2>=2.000
      20 -> 27         0.41589
      20 -> 28         0.24152
      21 -> 27        -0.26563
      21 -> 28         0.44410

 Excited State  19:      Triplet-A      7.5475 eV  164.27 nm  f=0.0000  <S**2>=2.000
      20 -> 27        -0.27281
      20 -> 28         0.44130
      21 -> 27        -0.41816
      21 -> 28        -0.23463

 Excited State  20:      Triplet-A      7.5616 eV  163.97 nm  f=0.0000  <S**2>=2.000
      20 -> 27         0.39067
      20 -> 28         0.34176
      21 -> 27         0.31104
      21 -> 28        -0.36574

 Excited State  21:      Triplet-A      7.8159 eV  158.63 nm  f=0.0000  <S**2>=2.000
      20 -> 30        -0.18415
      21 -> 30         0.68186

 Excited State  22:      Triplet-A      7.8170 eV  158.61 nm  f=0.0000  <S**2>=2.000
      20 -> 30         0.68186
      21 -> 30         0.18415

 Excited State  23:      Triplet-A      7.8333 eV  158.28 nm  f=0.0000  <S**2>=2.000
      20 -> 29        -0.16231
      21 -> 29         0.68744

 Excited State  24:      Triplet-A      7.8344 eV  158.26 nm  f=0.0000  <S**2>=2.000
      20 -> 29         0.68743
      21 -> 29         0.16231

 Excited State  25:      Triplet-A      7.9343 eV  156.26 nm  f=0.0000  <S**2>=2.000
      19 -> 24         0.70489

 Excited State  26:      Triplet-A      7.9352 eV  156.25 nm  f=0.0000  <S**2>=2.000
      18 -> 24         0.70490

 Excited State  27:      Triplet-A      8.5268 eV  145.41 nm  f=0.0000  <S**2>=2.000
      18 -> 25        -0.46634
      18 -> 26        -0.16750
      19 -> 25        -0.17251
      19 -> 26         0.47122

 Excited State  28:      Triplet-A      8.5346 eV  145.27 nm  f=0.0000  <S**2>=2.000
      21 -> 31         0.70680

 Excited State  29:      Triplet-A      8.5357 eV  145.25 nm  f=0.0000  <S**2>=2.000
      20 -> 31         0.70680

 Excited State  30:      Triplet-A      8.5682 eV  144.70 nm  f=0.0000  <S**2>=2.000
      18 -> 26        -0.48460
      19 -> 25         0.49622

 Excited State  31:      Triplet-A      8.5682 eV  144.70 nm  f=0.0000  <S**2>=2.000
      18 -> 25         0.49327
      19 -> 26         0.48764

 Excited State  32:      Triplet-A      8.6127 eV  143.96 nm  f=0.0000  <S**2>=2.000
      18 -> 25        -0.17127
      18 -> 26         0.47681
      19 -> 25         0.46309
      19 -> 26         0.16953

 Excited State  33:      Triplet-A      8.6244 eV  143.76 nm  f=0.0000  <S**2>=2.000
      20 -> 32        -0.42914
      20 -> 33         0.24811
      21 -> 32         0.25770
      21 -> 33         0.43054

 Excited State  34:      Triplet-A      8.6737 eV  142.94 nm  f=0.0000  <S**2>=2.000
      17 -> 23         0.11427
      20 -> 32         0.40381
      20 -> 33         0.10745
      20 -> 35        -0.18328
      21 -> 32        -0.11099
      21 -> 33         0.40830
      21 -> 35         0.29881

 Excited State  35:      Triplet-A      8.6745 eV  142.93 nm  f=0.0000  <S**2>=2.000
      17 -> 22         0.11351
      20 -> 32        -0.11420
      20 -> 33         0.40806
      20 -> 35        -0.29618
      21 -> 32        -0.40621
      21 -> 33        -0.10283
      21 -> 35        -0.18437

 Excited State  36:      Triplet-A      8.7219 eV  142.15 nm  f=0.0000  <S**2>=2.000
      15 -> 22        -0.21771
      15 -> 23        -0.43935
      16 -> 22         0.45743
      16 -> 23        -0.22249

 Excited State  37:      Triplet-A      8.7644 eV  141.46 nm  f=0.0000  <S**2>=2.000
      20 -> 32         0.27897
      20 -> 33         0.37108
      21 -> 32         0.46902
      21 -> 33        -0.21561

 Excited State  38:      Triplet-A      8.7675 eV  141.41 nm  f=0.0000  <S**2>=2.000
      17 -> 22        -0.13295
      20 -> 32        -0.15525
      20 -> 33         0.24902
      20 -> 35         0.20338
      21 -> 33        -0.25887
      21 -> 35         0.53128

 Excited State  39:      Triplet-A      8.7687 eV  141.39 nm  f=0.0000  <S**2>=2.000
      17 -> 23        -0.13524
      20 -> 32         0.18734
      20 -> 33         0.24205
      20 -> 35         0.53861
      21 -> 32        -0.17123
      21 -> 33         0.14541
      21 -> 35        -0.21616

 Excited State  40:      Triplet-A      8.7846 eV  141.14 nm  f=0.0000  <S**2>=2.000
      15 -> 22        -0.18195
      15 -> 23         0.46371
      16 -> 22         0.45396
      16 -> 23         0.19608

 The electronic state is 1-A.
 Alpha  occ. eigenvalues --   -9.78568  -9.78566  -9.78566  -9.78531  -9.78531
 Alpha  occ. eigenvalues --   -9.78513  -0.78369  -0.67739  -0.67734  -0.54522
 Alpha  occ. eigenvalues --   -0.54521  -0.47944  -0.40982  -0.40515  -0.37845
 Alpha  occ. eigenvalues --   -0.37838  -0.34454  -0.30361  -0.30357  -0.24167
 Alpha  occ. eigenvalues --   -0.24163
 Alpha virt. eigenvalues --   -0.05116  -0.05114  -0.00906   0.01366   0.01367
 Alpha virt. eigenvalues --    0.03681   0.03682   0.04931   0.04972   0.07292
 Alpha virt. eigenvalues --    0.08043   0.08046   0.08659   0.08895   0.12657

 Mulliken charges:
               1
     1  C   -0.065430
     2  C   -0.064829
     3  C   -0.064392
     4  C   -0.065376
     5  C   -0.064863
     6  C   -0.064341
     7  H    0.064902
     8  H    0.064950
     9  H    0.064764
    10  H    0.064901
    11  H    0.064950
    12  H    0.064764
 Sum of Mulliken charges =   0.00000

 Dipole moment (field-independent basis, Debye):
    X=              0.0000    Y=              0.0000    Z=             -0.0002  Tot=              0.0002
 Quadrupole moment (field-independent basis, Debye-Ang):
   XX=            -32.0379   YY=            -32.0414   ZZ=            -40.1505
   XY=             -0.0004   XZ=             -0.0005   YZ=             -0.0002

 Normal termination of Gaussian 09 at Fri Jul 29 12:44:43 2016.
 Gaussian 09:  ES64L-G09RevD.01 24-Apr-2013

 ----------------------------------------------------------------------
 # td=(triplet,nstates=40,root=3) 6-311+g(3df,2pd) geom=allcheck svwn5
 pop=orbitals=6
 ----------------------------------------------------------------------

 Structure from the checkpoint file:  "LDAtrip-Benz-xs3.chk"
 -------
 Benzene
 -------
 Charge =  0 Multiplicity = 1

                         Standard orientation:
 ---------------------------------------------------------------------
 Center     Atomic      Atomic             Coordinates (Angstroms)
 Number     Number       Type             X           Y           Z
 ---------------------------------------------------------------------
      1          6           0        0.359836   -1.337218    0.000000
      2          6           0        1.338237   -0.356969    0.000102
      3          6           0        0.978308    0.980219   -0.000055
      4          6           0       -0.359882    1.337204    0.000020
      5          6           0       -1.338225    0.357016    0.000057
      6          6           0       -0.978275   -0.980252   -0.000075
      7          1           0        0.643817   -2.393046   -0.000024
      8          1           0        2.394540   -0.639130   -0.000041
      9          1           0        1.750618    1.754131   -0.000169
     10          1           0       -0.643709    2.393071   -0.000071
     11          1           0       -2.394564    0.639030    0.000089
     12          1           0       -1.750698   -1.754054   -0.000082
 ---------------------------------------------------------------------

 SCF Done:  E(RS-VWN5) =  -230.172461956     A.U. after   10 cycles
