 Gaussian 09, Revision D.01,
 Gaussian 09:  ES64L-G09RevD.01 24-Apr-2013

 ------------------------------------------------------------
 # td=(nstates=100) density=scf svwn/6-311++G** geom=allcheck
 ------------------------------------------------------------

 Structure from the checkpoint file:  "bt1-td-svwn.chk"
 ---
 BT1
 ---
 Charge =  0 Multiplicity = 1

                         Standard orientation:
 ---------------------------------------------------------------------
 Center     Atomic      Atomic             Coordinates (Angstroms)
 Number     Number       Type             X           Y           Z
 ---------------------------------------------------------------------
      1          6           0       -0.692511   -0.696175    0.367588
      2          6           0        0.723081   -0.684523    0.317988
      3          6           0        1.481529    0.466800    0.171432
      4          6           0        0.724673    1.703311    0.112289
      5          6           0       -0.746608    1.693163    0.180160
      6          6           0       -1.478595    0.442545    0.281417
      7          1           0       -1.175556   -1.658914    0.462152
      8          1           0        1.228111   -1.639220    0.369506
      9          6           0       -2.925021    0.397493    0.258217
     10          6           0       -3.853723    1.411396    0.327221
     11          6           0       -5.208183    0.998406    0.226730
     12          6           0       -5.398608   -0.354340    0.065678
     13         16           0       -3.788458   -1.210889    0.053071
     14          1           0       -3.552297    2.439452    0.436167
     15          1           0       -6.032709    1.695516    0.260518
     16          7           0       -1.324803    2.891502    0.133367
     17          7           0        1.281848    2.908940    0.007570
     18         16           0       -0.031030    4.108113   -0.004369
     19          6           0        5.419983   -0.250784   -0.010103
     20          6           0        5.160492    1.021553   -0.455130
     21          6           0        3.793242    1.408465   -0.413988
     22          6           0        2.926419    0.445959    0.054023
     23         16           0        3.866960   -1.063732    0.497156
     24          1           0        5.947568    1.681502   -0.792165
     25          1           0        3.442678    2.382178   -0.711969
     26          6           0       -9.051771   -1.813780   -0.422565
     27          6           0       -8.161563   -2.841542   -0.493726
     28          6           0       -6.796113   -2.445457   -0.323399
     29          6           0       -6.610250   -1.100155   -0.114771
     30         16           0       -8.229529   -0.238560   -0.123828
     31          1           0      -10.122441   -1.828987   -0.517745
     32          1           0       -8.461321   -3.864084   -0.669137
     33          1           0       -5.971758   -3.143599   -0.358986
     34          6           0        6.666139   -0.963186    0.081375
     35          6           0        7.085563   -1.900080    0.992748
     36          6           0        8.408839   -2.398805    0.771183
     37          6           0        9.026442   -1.866904   -0.317882
     38         16           0        7.974307   -0.677672   -1.168761
     39          1           0        6.469215   -2.205013    1.827920
     40          1           0        8.880332   -3.126949    1.414942
     41          1           0       10.012118   -2.051287   -0.698981
 ---------------------------------------------------------------------

 SCF Done:  E(RS-VWN) =  -2935.67921979     A.U. after   30 cycles

 Excitation energies and oscillator strengths:

 Excited State   1:      Singlet-A      1.4248 eV  870.21 nm  f=0.3160  <S**2>=0.000
     119 ->120         0.69144
     119 ->121        -0.14000
 This state for optimization and/or second-order correction.
 Total Energy, E(TD-HF/TD-KS) =  -2935.62686078
 Copying the excited state density for this state as the 1-particle RhoCI density.

 Excited State   2:      Singlet-A      1.9013 eV  652.11 nm  f=0.0140  <S**2>=0.000
     118 ->120         0.68515
     119 ->122        -0.14776

 Excited State   3:      Singlet-A      2.4641 eV  503.17 nm  f=0.8833  <S**2>=0.000
     117 ->120         0.16291
     118 ->122        -0.10326
     119 ->120         0.15148
     119 ->121         0.65001

 Excited State   4:      Singlet-A      2.5040 eV  495.14 nm  f=0.0283  <S**2>=0.000
     115 ->120         0.16163
     116 ->120        -0.15827
     117 ->120         0.62926
     119 ->121        -0.15099

 Excited State   5:      Singlet-A      2.5697 eV  482.49 nm  f=0.0059  <S**2>=0.000
     115 ->120         0.12462
     116 ->120         0.64139
     117 ->120         0.11121
     119 ->122        -0.20554

 Excited State   6:      Singlet-A      2.6302 eV  471.39 nm  f=0.0044  <S**2>=0.000
     114 ->120        -0.32443
     115 ->120         0.55555
     118 ->121        -0.14908
     119 ->122         0.22385

 Excited State   7:      Singlet-A      2.6500 eV  467.86 nm  f=0.0133  <S**2>=0.000
     113 ->120         0.13370
     115 ->120        -0.23196
     116 ->120         0.22481
     118 ->121        -0.37550
     119 ->122         0.46161

 Excited State   8:      Singlet-A      2.6734 eV  463.77 nm  f=0.0021  <S**2>=0.000
     119 ->123         0.70615

 Excited State   9:      Singlet-A      2.7065 eV  458.10 nm  f=0.0019  <S**2>=0.000
     113 ->120        -0.18573
     114 ->120         0.59590
     115 ->120         0.26613
     117 ->120        -0.12605

 Excited State  10:      Singlet-A      2.8079 eV  441.55 nm  f=0.0004  <S**2>=0.000
     113 ->120         0.65556
     114 ->120         0.12701
     115 ->120         0.12130

 Excited State  11:      Singlet-A      3.1948 eV  388.09 nm  f=0.2075  <S**2>=0.000
     112 ->120        -0.10711
     117 ->121        -0.12788
     118 ->120         0.11015
     118 ->121         0.45330
     118 ->122        -0.24070
     119 ->121        -0.14970
     119 ->122         0.29158
     119 ->124        -0.24081

 Excited State  12:      Singlet-A      3.2664 eV  379.57 nm  f=0.0271  <S**2>=0.000
     111 ->120         0.57370
     112 ->120         0.26151
     118 ->122        -0.22623

 Excited State  13:      Singlet-A      3.2770 eV  378.35 nm  f=0.0062  <S**2>=0.000
     118 ->123         0.70020

 Excited State  14:      Singlet-A      3.3281 eV  372.54 nm  f=0.2499  <S**2>=0.000
     111 ->120         0.26752
     118 ->121         0.21437
     118 ->122         0.46655
     119 ->122         0.21342
     119 ->124         0.25159
     119 ->126        -0.10002

 Excited State  15:      Singlet-A      3.4177 eV  362.77 nm  f=0.0005  <S**2>=0.000
     115 ->121         0.10125
     116 ->121        -0.10971
     117 ->121        -0.44427
     118 ->122        -0.14188
     119 ->124         0.46121
     119 ->126         0.10629

 Excited State  16:      Singlet-A      3.5532 eV  348.93 nm  f=0.0003  <S**2>=0.000
     110 ->120         0.68383

 Excited State  17:      Singlet-A      3.6121 eV  343.25 nm  f=0.0062  <S**2>=0.000
     110 ->120        -0.10425
     111 ->120         0.17122
     112 ->120        -0.31842
     112 ->121        -0.13492
     117 ->122        -0.12861
     119 ->125         0.54101
     119 ->126        -0.10469

 Excited State  18:      Singlet-A      3.6247 eV  342.05 nm  f=0.0242  <S**2>=0.000
     112 ->120        -0.10560
     116 ->122        -0.11628
     117 ->121         0.31782
     118 ->122        -0.12308
     119 ->124         0.15558
     119 ->126         0.52720

 Excited State  19:      Singlet-A      3.6532 eV  339.39 nm  f=0.0011  <S**2>=0.000
     115 ->121         0.43098
     115 ->122        -0.12571
     116 ->121         0.46247
     117 ->122        -0.17389
     119 ->126        -0.14137

 Excited State  20:      Singlet-A      3.6910 eV  335.91 nm  f=0.0054  <S**2>=0.000
     115 ->121         0.43267
     116 ->121        -0.36711
     116 ->122        -0.21074
     117 ->121         0.17557
     117 ->122         0.20343
     119 ->126        -0.17289

 Excited State  21:      Singlet-A      3.7164 eV  333.62 nm  f=0.0019  <S**2>=0.000
     112 ->120         0.16472
     114 ->121         0.52893
     115 ->121        -0.12206
     117 ->121         0.12820
     119 ->125         0.17149
     119 ->126        -0.12288
     119 ->127         0.23035

 Excited State  22:      Singlet-A      3.7265 eV  332.71 nm  f=0.0146  <S**2>=0.000
     112 ->120         0.26859
     112 ->121         0.10487
     114 ->121        -0.30333
     119 ->125         0.25947
     119 ->126         0.11337
     119 ->127         0.43439

 Excited State  23:      Singlet-A      3.8397 eV  322.90 nm  f=0.0182  <S**2>=0.000
     109 ->120         0.51279
     114 ->121         0.11640
     116 ->122        -0.10040
     117 ->122         0.18333
     118 ->122         0.13813
     119 ->124        -0.13170
     119 ->126         0.18639
     119 ->127         0.10402

 Excited State  24:      Singlet-A      3.8534 eV  321.75 nm  f=0.0013  <S**2>=0.000
     109 ->120        -0.15457
     112 ->120        -0.14858
     113 ->121         0.30402
     114 ->122        -0.15025
     115 ->122        -0.18903
     116 ->121         0.14639
     116 ->122         0.10393
     117 ->122         0.34887
     118 ->124        -0.20648
     119 ->127         0.15994
     119 ->129         0.10000

 Excited State  25:      Singlet-A      3.8611 eV  321.11 nm  f=0.0155  <S**2>=0.000
     112 ->120        -0.23574
     113 ->121        -0.14123
     117 ->122        -0.12347
     118 ->124         0.30975
     119 ->125        -0.19938
     119 ->127         0.41759
     119 ->128        -0.13222
     119 ->130        -0.14810

 Excited State  26:      Singlet-A      3.8986 eV  318.02 nm  f=0.0061  <S**2>=0.000
     109 ->120         0.25887
     113 ->121         0.38021
     113 ->122         0.23096
     114 ->121        -0.19570
     115 ->121        -0.11148
     117 ->121         0.17714
     117 ->122        -0.18307
     118 ->124         0.20137
     119 ->128        -0.13442

 Excited State  27:      Singlet-A      3.9229 eV  316.05 nm  f=0.0005  <S**2>=0.000
     108 ->120        -0.16863
     117 ->123         0.67905

 Excited State  28:      Singlet-A      3.9461 eV  314.20 nm  f=0.0020  <S**2>=0.000
     113 ->121         0.15673
     113 ->122         0.11168
     118 ->124         0.20223
     119 ->128         0.61818

 Excited State  29:      Singlet-A      3.9754 eV  311.88 nm  f=0.0048  <S**2>=0.000
     108 ->120         0.48090
     113 ->121        -0.12273
     113 ->122        -0.10731
     116 ->122         0.23445
     117 ->121         0.12718
     117 ->123         0.15757
     118 ->124        -0.12826
     119 ->128         0.12422
     119 ->129         0.26047

 Excited State  30:      Singlet-A      3.9851 eV  311.12 nm  f=0.0042  <S**2>=0.000
     108 ->120         0.46955
     109 ->120        -0.16259
     116 ->122        -0.18841
     117 ->121        -0.13748
     118 ->124         0.12668
     119 ->129        -0.32552

 Excited State  31:      Singlet-A      4.0026 eV  309.76 nm  f=0.0100  <S**2>=0.000
     109 ->120        -0.11434
     111 ->121        -0.12904
     115 ->122         0.17947
     116 ->122        -0.23207
     117 ->121        -0.13333
     119 ->128        -0.15173
     119 ->129         0.52275

 Excited State  32:      Singlet-A      4.0616 eV  305.26 nm  f=0.0000  <S**2>=0.000
     113 ->121        -0.14000
     114 ->122         0.20032
     115 ->121        -0.10134
     115 ->122         0.21888
     116 ->121         0.22563
     116 ->123        -0.27822
     117 ->122         0.31048
     118 ->122        -0.12341
     118 ->124         0.20500
     118 ->125        -0.13877
     119 ->124         0.14253

 Excited State  33:      Singlet-A      4.0681 eV  304.77 nm  f=0.0001  <S**2>=0.000
     116 ->123         0.64848
     117 ->122         0.13816

 Excited State  34:      Singlet-A      4.1305 eV  300.17 nm  f=0.0078  <S**2>=0.000
     111 ->121        -0.24815
     114 ->122        -0.11121
     115 ->121         0.16741
     115 ->122         0.17655
     115 ->123        -0.22224
     116 ->122         0.42381
     117 ->122         0.11870
     118 ->124         0.17806

 Excited State  35:      Singlet-A      4.1421 eV  299.33 nm  f=0.0021  <S**2>=0.000
     111 ->121        -0.11668
     115 ->123         0.65010
     116 ->122         0.14024

 Excited State  36:      Singlet-A      4.1538 eV  298.48 nm  f=0.0107  <S**2>=0.000
     114 ->122        -0.19150
     115 ->122         0.40061
     115 ->123         0.15656
     118 ->124        -0.13589
     118 ->125         0.14375
     118 ->126        -0.14290
     119 ->125        -0.10139
     119 ->130         0.33554

 Excited State  37:      Singlet-A      4.1854 eV  296.23 nm  f=0.0050  <S**2>=0.000
     111 ->121        -0.22932
     112 ->121        -0.20326
     113 ->122        -0.22440
     114 ->122         0.11383
     115 ->122        -0.20929
     118 ->125        -0.18548
     118 ->126         0.14665
     119 ->130         0.44646

 Excited State  38:      Singlet-A      4.1881 eV  296.04 nm  f=0.0007  <S**2>=0.000
     114 ->123         0.70092

 Excited State  39:      Singlet-A      4.2204 eV  293.77 nm  f=0.0183  <S**2>=0.000
     113 ->121         0.12476
     114 ->122         0.44166
     115 ->124        -0.10897
     118 ->125         0.41514
     118 ->126        -0.21146

 Excited State  40:      Singlet-A      4.2552 eV  291.37 nm  f=0.0490  <S**2>=0.000
     113 ->121        -0.25319
     113 ->122         0.47284
     113 ->123         0.10274
     115 ->122        -0.14801
     118 ->125         0.12099
     119 ->130         0.28835
     119 ->132        -0.10914

 Excited State  41:      Singlet-A      4.2752 eV  290.01 nm  f=0.0002  <S**2>=0.000
     111 ->121         0.16537
     111 ->122        -0.13683
     118 ->125         0.28314
     118 ->126         0.56026

 Excited State  42:      Singlet-A      4.2855 eV  289.31 nm  f=0.0066  <S**2>=0.000
     111 ->121        -0.10515
     113 ->122        -0.10981
     113 ->123         0.65440
     118 ->125         0.11133

 Excited State  43:      Singlet-A      4.2931 eV  288.80 nm  f=0.0154  <S**2>=0.000
     111 ->121        -0.24430
     113 ->123        -0.24479
     114 ->122        -0.24701
     115 ->122        -0.12007
     116 ->122        -0.11639
     118 ->125         0.31104
     118 ->126        -0.15180
     118 ->127         0.20802
     119 ->132        -0.11343

 Excited State  44:      Singlet-A      4.4001 eV  281.78 nm  f=0.0002  <S**2>=0.000
     111 ->121         0.10644
     112 ->121        -0.18280
     112 ->122         0.19028
     118 ->127         0.59421

 Excited State  45:      Singlet-A      4.4087 eV  281.23 nm  f=0.0002  <S**2>=0.000
     112 ->121        -0.10788
     119 ->131         0.69119

 Excited State  46:      Singlet-A      4.4251 eV  280.18 nm  f=0.0193  <S**2>=0.000
     111 ->122         0.12460
     112 ->120        -0.16583
     112 ->121         0.52115
     112 ->122        -0.10604
     118 ->127         0.24900
     119 ->131         0.11879

 Excited State  47:      Singlet-A      4.4885 eV  276.22 nm  f=0.0035  <S**2>=0.000
     107 ->120         0.64498
     110 ->121        -0.21658
     111 ->121        -0.11399

 Excited State  48:      Singlet-A      4.5246 eV  274.02 nm  f=0.0006  <S**2>=0.000
     107 ->120         0.13053
     111 ->122        -0.17740
     112 ->121         0.14772
     112 ->122         0.59551
     117 ->124         0.11082

 Excited State  49:      Singlet-A      4.5404 eV  273.07 nm  f=0.0101  <S**2>=0.000
     107 ->120         0.22214
     109 ->121         0.12036
     110 ->121         0.46757
     111 ->121         0.19270
     111 ->122        -0.15499
     112 ->122        -0.17391
     118 ->128        -0.25806

 Excited State  50:      Singlet-A      4.5543 eV  272.23 nm  f=0.0003  <S**2>=0.000
     110 ->121         0.29808
     111 ->122         0.13854
     118 ->128         0.60371

 Excited State  51:      Singlet-A      4.5750 eV  271.00 nm  f=0.0194  <S**2>=0.000
     106 ->120         0.42384
     109 ->121        -0.11128
     111 ->122         0.34506
     117 ->124         0.32957
     118 ->128        -0.11717
     118 ->129        -0.19405

 Excited State  52:      Singlet-A      4.5850 eV  270.41 nm  f=0.0245  <S**2>=0.000
     105 ->120         0.10805
     106 ->120         0.52094
     111 ->122        -0.16508
     117 ->124        -0.36936
     118 ->129         0.16752

 Excited State  53:      Singlet-A      4.6132 eV  268.76 nm  f=0.0127  <S**2>=0.000
     105 ->120        -0.15222
     109 ->121        -0.21256
     117 ->124         0.11969
     118 ->128        -0.12670
     118 ->129         0.58784

 Excited State  54:      Singlet-A      4.6165 eV  268.57 nm  f=0.0447  <S**2>=0.000
     105 ->120         0.17553
     109 ->121         0.37264
     110 ->121        -0.24516
     111 ->121         0.13404
     117 ->124         0.30630
     118 ->129         0.24285

 Excited State  55:      Singlet-A      4.6559 eV  266.30 nm  f=0.0010  <S**2>=0.000
     119 ->132         0.36024
     119 ->133         0.57533

 Excited State  56:      Singlet-A      4.6767 eV  265.11 nm  f=0.0009  <S**2>=0.000
     111 ->122         0.11670
     115 ->124         0.13272
     117 ->124        -0.13681
     119 ->132         0.43919
     119 ->133        -0.39136
     119 ->134        -0.13797

 Excited State  57:      Singlet-A      4.6883 eV  264.45 nm  f=0.0076  <S**2>=0.000
     105 ->120        -0.10538
     109 ->121        -0.10122
     110 ->122        -0.20053
     111 ->122        -0.24026
     117 ->124         0.16640
     118 ->130         0.50845
     119 ->132         0.13203
     119 ->133        -0.10005

 Excited State  58:      Singlet-A      4.7243 eV  262.44 nm  f=0.0007  <S**2>=0.000
     110 ->123        -0.11278
     111 ->123         0.57818
     112 ->123         0.38304

 Excited State  59:      Singlet-A      4.7394 eV  261.60 nm  f=0.0241  <S**2>=0.000
     105 ->120        -0.13084
     109 ->121        -0.25367
     109 ->122        -0.20697
     110 ->122         0.26508
     111 ->121         0.19679
     115 ->124        -0.10470
     116 ->124        -0.18189
     118 ->124         0.12546
     118 ->130         0.26406

 Excited State  60:      Singlet-A      4.7481 eV  261.13 nm  f=0.0072  <S**2>=0.000
     109 ->121         0.13593
     110 ->122         0.42932
     116 ->124         0.43668
     118 ->130         0.21198

 Excited State  61:      Singlet-A      4.7737 eV  259.72 nm  f=0.0008  <S**2>=0.000
     105 ->120        -0.10806
     109 ->122        -0.20719
     110 ->121        -0.11515
     110 ->122        -0.35422
     111 ->121         0.13654
     116 ->124         0.44072
     118 ->124         0.10264

 Excited State  62:      Singlet-A      4.8024 eV  258.17 nm  f=0.0006  <S**2>=0.000
     115 ->124         0.11909
     119 ->134         0.66685

 Excited State  63:      Singlet-A      4.8134 eV  257.58 nm  f=0.0014  <S**2>=0.000
     104 ->120         0.68949

 Excited State  64:      Singlet-A      4.8580 eV  255.22 nm  f=0.0050  <S**2>=0.000
     105 ->120        -0.10354
     109 ->121        -0.12299
     109 ->122        -0.11193
     110 ->122         0.16511
     111 ->122        -0.14377
     114 ->124         0.36029
     115 ->124         0.40215
     116 ->125        -0.12345
     116 ->126        -0.13147
     118 ->130        -0.13374

 Excited State  65:      Singlet-A      4.8604 eV  255.09 nm  f=0.0003  <S**2>=0.000
     111 ->123        -0.38083
     112 ->123         0.58735

 Excited State  66:      Singlet-A      4.8906 eV  253.52 nm  f=0.0154  <S**2>=0.000
     117 ->125        -0.39245
     117 ->126         0.54528

 Excited State  67:      Singlet-A      4.9129 eV  252.37 nm  f=0.0024  <S**2>=0.000
     105 ->120         0.20893
     109 ->122         0.13226
     115 ->124         0.11832
     116 ->124         0.11433
     117 ->125         0.45121
     117 ->126         0.32671
     117 ->127         0.10145

 Excited State  68:      Singlet-A      4.9325 eV  251.36 nm  f=0.0024  <S**2>=0.000
     102 ->120         0.21530
     105 ->120        -0.25163
     108 ->121         0.16722
     110 ->122         0.10831
     111 ->122        -0.14180
     113 ->124         0.24254
     114 ->124        -0.15973
     117 ->125         0.18205
     117 ->126         0.10780
     118 ->130        -0.15462
     119 ->135         0.28860

 Excited State  69:      Singlet-A      4.9438 eV  250.79 nm  f=0.0042  <S**2>=0.000
     113 ->124        -0.13230
     114 ->124         0.36603
     114 ->125        -0.11611
     115 ->124        -0.24370
     115 ->125         0.21720
     115 ->126         0.11859
     119 ->135         0.38840
     119 ->137         0.10110

 Excited State  70:      Singlet-A      4.9501 eV  250.47 nm  f=0.0029  <S**2>=0.000
     102 ->120         0.36598
     108 ->121         0.29734
     113 ->124        -0.22359
     114 ->124         0.14177
     115 ->124        -0.11942
     115 ->125         0.12026
     119 ->135        -0.35959

 Excited State  71:      Singlet-A      4.9591 eV  250.01 nm  f=0.0013  <S**2>=0.000
     102 ->120         0.34979
     103 ->120         0.10010
     105 ->120         0.18714
     108 ->121         0.19919
     113 ->124        -0.11605
     115 ->124         0.17366
     115 ->125        -0.10273
     116 ->125        -0.11177
     118 ->130         0.11478
     119 ->135         0.31899
     119 ->136         0.13485

 Excited State  72:      Singlet-A      4.9829 eV  248.82 nm  f=0.0010  <S**2>=0.000
     102 ->120         0.17569
     105 ->120         0.19845
     113 ->124         0.50196
     114 ->124         0.15298
     114 ->125        -0.14578

 Excited State  73:      Singlet-A      5.0060 eV  247.67 nm  f=0.0021  <S**2>=0.000
     102 ->120        -0.24330
     108 ->121         0.37103
     109 ->122        -0.16905
     116 ->125         0.31031
     116 ->126        -0.15821
     117 ->127         0.20270
     118 ->131        -0.23364

 Excited State  74:      Singlet-A      5.0107 eV  247.44 nm  f=0.0004  <S**2>=0.000
     102 ->120         0.17213
     103 ->120         0.10426
     108 ->121        -0.28072
     116 ->125         0.33234
     116 ->126        -0.19795
     117 ->127         0.34384
     118 ->131         0.26399

 Excited State  75:      Singlet-A      5.0155 eV  247.20 nm  f=0.0001  <S**2>=0.000
     102 ->120        -0.18586
     108 ->121         0.28699
     118 ->131         0.59610

 Excited State  76:      Singlet-A      5.0284 eV  246.57 nm  f=0.0009  <S**2>=0.000
     102 ->120        -0.14205
     103 ->120         0.29638
     108 ->121         0.10318
     109 ->122         0.40846
     118 ->132         0.16939
     119 ->136         0.29348

 Excited State  77:      Singlet-A      5.0493 eV  245.55 nm  f=0.0024  <S**2>=0.000
     103 ->120        -0.19240
     119 ->136         0.51347
     119 ->138        -0.36497

 Excited State  78:      Singlet-A      5.0515 eV  245.44 nm  f=0.0017  <S**2>=0.000
     103 ->120         0.19666
     109 ->122        -0.17001
     110 ->123        -0.14665
     116 ->125        -0.34767
     116 ->126         0.19228
     117 ->127         0.42285

 Excited State  79:      Singlet-A      5.0726 eV  244.42 nm  f=0.0023  <S**2>=0.000
     114 ->125         0.16537
     116 ->125         0.15364
     116 ->126         0.20401
     119 ->137         0.55568
     119 ->138        -0.24318

 Excited State  80:      Singlet-A      5.0816 eV  243.98 nm  f=0.0014  <S**2>=0.000
     103 ->120         0.15896
     109 ->122        -0.11168
     114 ->125         0.26984
     115 ->125         0.38064
     115 ->126        -0.16390
     116 ->125         0.17787
     116 ->126         0.12268
     117 ->127        -0.15617
     118 ->132        -0.10751
     119 ->137        -0.24338

 Excited State  81:      Singlet-A      5.1006 eV  243.08 nm  f=0.0021  <S**2>=0.000
     103 ->120        -0.19475

 The electronic state is 1-A.
 Alpha  occ. eigenvalues --  -87.82944 -87.77780 -87.77656 -87.77476 -87.77452
 Alpha  occ. eigenvalues --  -13.93169 -13.93157  -9.87673  -9.87641  -9.86377
 Alpha  occ. eigenvalues --   -9.86201  -9.86163  -9.85966  -9.85848  -9.85762
 Alpha  occ. eigenvalues --   -9.85002  -9.84949  -9.84611  -9.84371  -9.83064
 Alpha  occ. eigenvalues --   -9.83036  -9.82083  -9.82030  -9.81898  -9.81896
 Alpha  occ. eigenvalues --   -9.81836  -9.81773  -9.81510  -9.81466  -7.74515
 Alpha  occ. eigenvalues --   -7.69789  -7.69660  -7.69499  -7.69467  -5.80234
 Alpha  occ. eigenvalues --   -5.79594  -5.79093  -5.75306  -5.75170  -5.75030
 Alpha  occ. eigenvalues --   -5.74990  -5.74882  -5.74748  -5.74615  -5.74577
 Alpha  occ. eigenvalues --   -5.74397  -5.74284  -5.74064  -5.74051  -0.93468
 Alpha  occ. eigenvalues --   -0.84281  -0.83832  -0.83247  -0.82315  -0.81400
 Alpha  occ. eigenvalues --   -0.80370  -0.75084  -0.72669  -0.71983  -0.71157
 Alpha  occ. eigenvalues --   -0.69944  -0.69605  -0.68743  -0.68405  -0.67148
 Alpha  occ. eigenvalues --   -0.65244  -0.62733  -0.60195  -0.58898  -0.56725
 Alpha  occ. eigenvalues --   -0.56531  -0.54543  -0.53331  -0.51981  -0.51781
 Alpha  occ. eigenvalues --   -0.50907  -0.50597  -0.50110  -0.49882  -0.48022
 Alpha  occ. eigenvalues --   -0.47632  -0.45295  -0.45114  -0.43443  -0.43151
 Alpha  occ. eigenvalues --   -0.41381  -0.40553  -0.40100  -0.39630  -0.39462
 Alpha  occ. eigenvalues --   -0.39282  -0.39177  -0.38798  -0.38467  -0.38202
 Alpha  occ. eigenvalues --   -0.37476  -0.37191  -0.36900  -0.36639  -0.36296
 Alpha  occ. eigenvalues --   -0.35846  -0.34548  -0.34524  -0.33986  -0.33591
 Alpha  occ. eigenvalues --   -0.33110  -0.32809  -0.30577  -0.29434  -0.28882
 Alpha  occ. eigenvalues --   -0.28017  -0.27860  -0.26419  -0.26057  -0.25887
 Alpha  occ. eigenvalues --   -0.25613  -0.25047  -0.22697  -0.20473
 Alpha virt. eigenvalues --   -0.16353  -0.12499  -0.11423  -0.10675  -0.08434
 Alpha virt. eigenvalues --   -0.07284  -0.07226  -0.06681  -0.06078  -0.05931
 Alpha virt. eigenvalues --   -0.05487  -0.04297  -0.03746  -0.03355  -0.02881

 Mulliken charges:
               1
     1  C   -0.954524
     2  C   -0.895844
     3  C    0.860891
     4  C   -0.402925
     5  C   -0.335617
     6  C    0.716532
     7  H    0.163984
     8  H    0.108658
     9  C    0.100263
    10  C    0.272075
    11  C    0.369533
    12  C   -0.595152
    13  S   -1.552791
    14  H    0.272197
    15  H    0.191160
    16  N    0.042295
    17  N   -0.017883
    18  S    0.492359
    19  C   -0.387623
    20  C    0.191105
    21  C    0.306104
    22  C    0.439640
    23  S   -1.119622
    24  H    0.208320
    25  H    0.237099
    26  C    0.238713
    27  C   -0.891026
    28  C    2.279256
    29  C   -0.851973
    30  S   -0.720541
    31  H    0.310024
    32  H    0.206886
    33  H    0.229346
    34  C   -0.715754
    35  C    1.609668
    36  C   -0.890074
    37  C    0.292166
    38  S   -0.547133
    39  H    0.220835
    40  H    0.203932
    41  H    0.315440
 Sum of Mulliken charges =   0.00000

 Dipole moment (field-independent basis, Debye):
    X=             -0.1041    Y=             -1.5843    Z=              0.0398  Tot=              1.5883
 Quadrupole moment (field-independent basis, Debye-Ang):
   XX=           -161.8182   YY=           -185.7997   ZZ=           -209.8685
   XY=             -0.0995   XZ=              2.8867   YZ=             -3.6687

 Normal termination of Gaussian 09 at Thu Nov 10 13:51:56 2016.
