 Gaussian 09, Revision D.01,
 Gaussian 09:  ES64L-G09RevD.01 24-Apr-2013

 -------------------------------------------------------------
 # td=(nstates=100) density=scf b3lyp/6-311++G** geom=allcheck
 -------------------------------------------------------------

 Structure from the checkpoint file:  "bt1-td.chk"
 ---
 BT1
 ---
 Charge =  0 Multiplicity = 1

                         Standard orientation:
 ---------------------------------------------------------------------
 Center     Atomic      Atomic             Coordinates (Angstroms)
 Number     Number       Type             X           Y           Z
 ---------------------------------------------------------------------
      1          6           0       -0.692511   -0.696175    0.367588
      2          6           0        0.723081   -0.684523    0.317988
      3          6           0        1.481529    0.466800    0.171432
      4          6           0        0.724673    1.703311    0.112289
      5          6           0       -0.746608    1.693163    0.180160
      6          6           0       -1.478595    0.442545    0.281417
      7          1           0       -1.175556   -1.658914    0.462152
      8          1           0        1.228111   -1.639220    0.369506
      9          6           0       -2.925021    0.397493    0.258217
     10          6           0       -3.853723    1.411396    0.327221
     11          6           0       -5.208183    0.998406    0.226730
     12          6           0       -5.398608   -0.354340    0.065678
     13         16           0       -3.788458   -1.210889    0.053071
     14          1           0       -3.552297    2.439452    0.436167
     15          1           0       -6.032709    1.695516    0.260518
     16          7           0       -1.324803    2.891502    0.133367
     17          7           0        1.281848    2.908940    0.007570
     18         16           0       -0.031030    4.108113   -0.004369
     19          6           0        5.419983   -0.250784   -0.010103
     20          6           0        5.160492    1.021553   -0.455130
     21          6           0        3.793242    1.408465   -0.413988
     22          6           0        2.926419    0.445959    0.054023
     23         16           0        3.866960   -1.063732    0.497156
     24          1           0        5.947568    1.681502   -0.792165
     25          1           0        3.442678    2.382178   -0.711969
     26          6           0       -9.051771   -1.813780   -0.422565
     27          6           0       -8.161563   -2.841542   -0.493726
     28          6           0       -6.796113   -2.445457   -0.323399
     29          6           0       -6.610250   -1.100155   -0.114771
     30         16           0       -8.229529   -0.238560   -0.123828
     31          1           0      -10.122441   -1.828987   -0.517745
     32          1           0       -8.461321   -3.864084   -0.669137
     33          1           0       -5.971758   -3.143599   -0.358986
     34          6           0        6.666139   -0.963186    0.081375
     35          6           0        7.085563   -1.900080    0.992748
     36          6           0        8.408839   -2.398805    0.771183
     37          6           0        9.026442   -1.866904   -0.317882
     38         16           0        7.974307   -0.677672   -1.168761
     39          1           0        6.469215   -2.205013    1.827920
     40          1           0        8.880332   -3.126949    1.414942
     41          1           0       10.012118   -2.051287   -0.698981
 ---------------------------------------------------------------------

 SCF Done:  E(RB3LYP) =  -2946.30573412     A.U. after   28 cycles

 Excitation energies and oscillator strengths:

 Excited State   1:      Singlet-A      1.7667 eV  701.78 nm  f=0.4957  <S**2>=0.000
     119 ->120         0.70081
 This state for optimization and/or second-order correction.
 Total Energy, E(TD-HF/TD-KS) =  -2946.24080874
 Copying the excited state density for this state as the 1-particle RhoCI density.

 Excited State   2:      Singlet-A      2.4384 eV  508.46 nm  f=0.0203  <S**2>=0.000
     118 ->120         0.69286
     119 ->122        -0.10714

 Excited State   3:      Singlet-A      2.9046 eV  426.85 nm  f=0.9934  <S**2>=0.000
     119 ->121         0.69021

 Excited State   4:      Singlet-A      3.1664 eV  391.57 nm  f=0.0053  <S**2>=0.000
     115 ->120        -0.10816
     117 ->120         0.67808

 Excited State   5:      Singlet-A      3.2455 eV  382.01 nm  f=0.0528  <S**2>=0.000
     113 ->120         0.11900
     114 ->120        -0.11452
     116 ->120        -0.35415
     119 ->122         0.56171

 Excited State   6:      Singlet-A      3.3224 eV  373.18 nm  f=0.0335  <S**2>=0.000
     114 ->120         0.20855
     115 ->120         0.24559
     116 ->120         0.48295
     119 ->122         0.36975

 Excited State   7:      Singlet-A      3.3750 eV  367.36 nm  f=0.0004  <S**2>=0.000
     113 ->120         0.21277
     114 ->120         0.29577
     115 ->120         0.49282
     116 ->120        -0.27957
     117 ->120         0.15923

 Excited State   8:      Singlet-A      3.5066 eV  353.57 nm  f=0.0008  <S**2>=0.000
     119 ->123         0.70176

 Excited State   9:      Singlet-A      3.5436 eV  349.89 nm  f=0.0015  <S**2>=0.000
     114 ->120         0.58059
     115 ->120        -0.39483

 Excited State  10:      Singlet-A      3.6047 eV  343.95 nm  f=0.0005  <S**2>=0.000
     113 ->120         0.63208
     115 ->120        -0.11852
     116 ->120         0.22177
     118 ->121         0.15483

 Excited State  11:      Singlet-A      3.6737 eV  337.49 nm  f=0.0828  <S**2>=0.000
     112 ->120        -0.12757
     113 ->120        -0.14672
     118 ->121         0.65854

 Excited State  12:      Singlet-A      3.9196 eV  316.32 nm  f=0.0102  <S**2>=0.000
     109 ->120         0.36160
     111 ->120         0.47229
     112 ->120         0.23704
     118 ->122        -0.20531
     119 ->125        -0.10323

 Excited State  13:      Singlet-A      3.9584 eV  313.22 nm  f=0.1331  <S**2>=0.000
     109 ->120         0.21267
     111 ->120         0.21977
     112 ->120        -0.17257
     118 ->122         0.55523
     119 ->124         0.21453

 Excited State  14:      Singlet-A      3.9798 eV  311.54 nm  f=0.0512  <S**2>=0.000
     111 ->120        -0.14746
     112 ->120         0.54110
     118 ->122         0.25018
     119 ->124         0.13253
     119 ->125        -0.14406
     119 ->126        -0.17047

 Excited State  15:      Singlet-A      4.0651 eV  304.99 nm  f=0.0037  <S**2>=0.000
     109 ->120         0.53054
     109 ->121        -0.10572
     111 ->120        -0.42173

 Excited State  16:      Singlet-A      4.1038 eV  302.12 nm  f=0.0028  <S**2>=0.000
     117 ->121         0.10982
     118 ->122        -0.22850
     119 ->124         0.55437
     119 ->125         0.11996
     119 ->126        -0.19425

 Excited State  17:      Singlet-A      4.2636 eV  290.79 nm  f=0.0122  <S**2>=0.000
     112 ->120         0.10562
     118 ->126        -0.10645
     118 ->127        -0.13143
     119 ->124         0.12870
     119 ->125         0.10145
     119 ->126         0.51230
     119 ->127         0.31927
     119 ->131        -0.15790

 Excited State  18:      Singlet-A      4.3166 eV  287.23 nm  f=0.0001  <S**2>=0.000
     118 ->123         0.69042

 Excited State  19:      Singlet-A      4.3238 eV  286.75 nm  f=0.0002  <S**2>=0.000
     116 ->121         0.11991
     117 ->121        -0.11751
     118 ->123         0.10341
     118 ->126        -0.14899
     119 ->124        -0.14608
     119 ->125         0.47666
     119 ->126        -0.22322
     119 ->127         0.23312
     119 ->131        -0.12267

 Excited State  20:      Singlet-A      4.3532 eV  284.81 nm  f=0.0021  <S**2>=0.000
     110 ->120         0.39791
     117 ->121         0.54904

 Excited State  21:      Singlet-A      4.4028 eV  281.60 nm  f=0.0013  <S**2>=0.000
     110 ->120         0.55278
     113 ->121         0.10962
     116 ->121        -0.14047
     117 ->121        -0.34286

 Excited State  22:      Singlet-A      4.4705 eV  277.34 nm  f=0.0177  <S**2>=0.000
     112 ->120        -0.14426
     115 ->122        -0.10748
     116 ->121        -0.27022
     119 ->125        -0.23711
     119 ->126        -0.16239
     119 ->127         0.43739
     119 ->129         0.19461

 Excited State  23:      Singlet-A      4.5020 eV  275.40 nm  f=0.0056  <S**2>=0.000
     115 ->122         0.10250
     116 ->121         0.46172
     117 ->122        -0.16360
     119 ->128        -0.13303
     119 ->129         0.33719
     119 ->131         0.15885

 Excited State  24:      Singlet-A      4.5135 eV  274.70 nm  f=0.0010  <S**2>=0.000
     108 ->120         0.67511

 Excited State  25:      Singlet-A      4.5465 eV  272.70 nm  f=0.0158  <S**2>=0.000
     114 ->121         0.10621
     116 ->121         0.17065
     117 ->122        -0.26713
     118 ->129         0.14135
     119 ->125        -0.15081
     119 ->129        -0.20042
     119 ->130         0.40049
     119 ->131        -0.27143

 Excited State  26:      Singlet-A      4.6276 eV  267.92 nm  f=0.0002  <S**2>=0.000
     115 ->121        -0.25393
     116 ->121         0.13538
     119 ->128         0.55005
     119 ->130        -0.11277

 Excited State  27:      Singlet-A      4.6370 eV  267.38 nm  f=0.0165  <S**2>=0.000
     114 ->121         0.18071
     115 ->121         0.48254
     115 ->122         0.17868
     116 ->122         0.10945
     118 ->124         0.10831
     119 ->124        -0.10066
     119 ->128         0.31356
     119 ->129         0.13822

 Excited State  28:      Singlet-A      4.6423 eV  267.07 nm  f=0.0072  <S**2>=0.000
     113 ->121         0.14783
     114 ->121        -0.11913
     117 ->122         0.49846
     118 ->124         0.11849
     119 ->125        -0.13133
     119 ->129         0.19353
     119 ->130         0.29353

 Excited State  29:      Singlet-A      4.7014 eV  263.72 nm  f=0.0142  <S**2>=0.000
     112 ->120         0.12450
     113 ->121        -0.14151
     114 ->121         0.10359
     115 ->121        -0.15490
     116 ->121        -0.19574
     117 ->122        -0.12305
     118 ->124        -0.15140
     118 ->130         0.11599
     119 ->125         0.16508
     119 ->126         0.11465
     119 ->127        -0.21000
     119 ->128         0.10403
     119 ->129         0.33696
     119 ->130         0.25064
     119 ->132         0.14331

 Excited State  30:      Singlet-A      4.7225 eV  262.54 nm  f=0.0327  <S**2>=0.000
     114 ->121         0.50957
     114 ->122         0.22844
     115 ->121        -0.15473
     115 ->122        -0.19861
     117 ->122         0.20280
     118 ->124         0.17411

 Excited State  31:      Singlet-A      4.7623 eV  260.35 nm  f=0.0289  <S**2>=0.000
     113 ->121         0.57237
     114 ->121         0.17165
     114 ->122         0.12868
     118 ->124        -0.18026
     119 ->125         0.10167

 Excited State  32:      Singlet-A      4.7967 eV  258.48 nm  f=0.0088  <S**2>=0.000
     113 ->121         0.15004
     114 ->122         0.13249
     115 ->121        -0.10625
     115 ->122         0.19552
     116 ->121        -0.16038
     117 ->122        -0.15085
     118 ->124         0.36534
     119 ->127        -0.11410
     119 ->129         0.16857
     119 ->130        -0.18426
     119 ->131        -0.28608

 Excited State  33:      Singlet-A      4.8140 eV  257.55 nm  f=0.0054  <S**2>=0.000
     114 ->122         0.14312
     115 ->121        -0.18165
     115 ->122         0.20837
     116 ->121        -0.11535
     118 ->124         0.23202
     118 ->128         0.12193
     119 ->127         0.10192
     119 ->129        -0.12319
     119 ->130         0.22242
     119 ->131         0.41090
     119 ->132        -0.18510

 Excited State  34:      Singlet-A      4.8764 eV  254.26 nm  f=0.0196  <S**2>=0.000
     114 ->121        -0.13140
     114 ->122         0.14698
     115 ->122         0.17168
     116 ->122         0.36176
     119 ->132         0.44566

 Excited State  35:      Singlet-A      4.8848 eV  253.82 nm  f=0.0551  <S**2>=0.000
     115 ->121        -0.14070
     115 ->122         0.15100
     116 ->122         0.39278
     118 ->124        -0.24360
     118 ->126         0.10426
     119 ->131        -0.13154
     119 ->132        -0.31121
     119 ->133        -0.11540

 Excited State  36:      Singlet-A      4.9630 eV  249.82 nm  f=0.0058  <S**2>=0.000
     112 ->121        -0.13684
     113 ->122         0.11279
     114 ->121         0.16110
     115 ->121        -0.13738
     115 ->122         0.41576
     116 ->122        -0.30680
     118 ->124        -0.18678
     119 ->132         0.13249
     119 ->135         0.11690

 Excited State  37:      Singlet-A      4.9813 eV  248.90 nm  f=0.0001  <S**2>=0.000
     110 ->123         0.16021
     117 ->123         0.67053

 Excited State  38:      Singlet-A      4.9928 eV  248.33 nm  f=0.0188  <S**2>=0.000
     114 ->121        -0.23160
     114 ->122         0.45216
     115 ->121         0.16513
     115 ->122        -0.14994
     116 ->122        -0.11648
     118 ->125        -0.12358
     119 ->133        -0.13751
     119 ->134         0.10912
     119 ->135         0.26514

 Excited State  39:      Singlet-A      5.0044 eV  247.75 nm  f=0.0026  <S**2>=0.000
     112 ->121         0.15233
     114 ->122        -0.24540
     116 ->122         0.11482
     118 ->124         0.10613
     119 ->134         0.25671
     119 ->135         0.50389

 Excited State  40:      Singlet-A      5.0276 eV  246.61 nm  f=0.0012  <S**2>=0.000
     112 ->121         0.41095
     118 ->125        -0.14281
     118 ->131         0.10422
     119 ->132         0.18706
     119 ->133        -0.37730
     119 ->135        -0.24485

 Excited State  41:      Singlet-A      5.0399 eV  246.00 nm  f=0.0028  <S**2>=0.000
     112 ->121         0.44127
     114 ->122         0.13696
     115 ->122         0.10710
     116 ->122        -0.10662
     119 ->133         0.42668
     119 ->134         0.12475

 Excited State  42:      Singlet-A      5.0417 eV  245.92 nm  f=0.0016  <S**2>=0.000
     112 ->121        -0.21278
     118 ->125        -0.16062
     119 ->133         0.16199
     119 ->134         0.50941
     119 ->135        -0.22403

 Excited State  43:      Singlet-A      5.0610 eV  244.98 nm  f=0.0004  <S**2>=0.000
     111 ->123        -0.18340
     112 ->123         0.59336
     113 ->123        -0.10237
     114 ->123         0.10938
     116 ->123         0.20468

 Excited State  44:      Singlet-A      5.0983 eV  243.18 nm  f=0.0097  <S**2>=0.000
     118 ->124         0.13059
     118 ->126         0.56153
     119 ->127         0.12768
     119 ->132         0.12575
     119 ->134        -0.18644

 Excited State  45:      Singlet-A      5.1141 eV  242.43 nm  f=0.0152  <S**2>=0.000
     118 ->125         0.53782
     118 ->126         0.19172
     119 ->133        -0.17748
     119 ->134         0.20187

 Excited State  46:      Singlet-A      5.1574 eV  240.40 nm  f=0.0126  <S**2>=0.000
     113 ->121         0.16315
     113 ->122         0.60455
     116 ->122         0.11410
     118 ->126        -0.11123
     119 ->136         0.10436

 Excited State  47:      Singlet-A      5.1868 eV  239.04 nm  f=0.0057  <S**2>=0.000
     113 ->122        -0.12347
     118 ->127        -0.11921
     118 ->133         0.11897
     119 ->131        -0.10168
     119 ->136         0.62061

 Excited State  48:      Singlet-A      5.2389 eV  236.66 nm  f=0.0080  <S**2>=0.000
     117 ->126        -0.13579
     118 ->125        -0.12845
     118 ->127         0.57174
     118 ->131        -0.13031
     119 ->136         0.14381

 Excited State  49:      Singlet-A      5.2558 eV  235.90 nm  f=0.0038  <S**2>=0.000
     111 ->121         0.63604

 Excited State  50:      Singlet-A      5.3133 eV  233.35 nm  f=0.0085  <S**2>=0.000
     118 ->128        -0.18462
     118 ->132         0.12251
     118 ->134         0.10696
     119 ->131         0.11150
     119 ->137         0.55377
     119 ->139         0.15104
     119 ->141         0.14230

 Excited State  51:      Singlet-A      5.3353 eV  232.38 nm  f=0.0135  <S**2>=0.000
     106 ->120        -0.10356
     107 ->120         0.24039
     111 ->122        -0.15763
     118 ->128        -0.20116
     118 ->129         0.19246
     118 ->130         0.27513
     119 ->130        -0.11376
     119 ->137        -0.11710
     119 ->138        -0.22782
     119 ->139         0.22322

 Excited State  52:      Singlet-A      5.3413 eV  232.12 nm  f=0.0011  <S**2>=0.000
     104 ->120         0.16918
     107 ->120         0.56725
     109 ->121         0.19725
     118 ->130        -0.10781
     119 ->138         0.10369

 Excited State  53:      Singlet-A      5.3519 eV  231.67 nm  f=0.0008  <S**2>=0.000
     112 ->123        -0.25016
     113 ->123        -0.15077
     116 ->123         0.62568

 Excited State  54:      Singlet-A      5.3701 eV  230.88 nm  f=0.0035  <S**2>=0.000
     111 ->122        -0.12084
     112 ->122         0.45918
     113 ->123        -0.13202
     114 ->123        -0.24230
     115 ->123        -0.37276
     119 ->138        -0.11006

 Excited State  55:      Singlet-A      5.3720 eV  230.80 nm  f=0.0050  <S**2>=0.000
     112 ->122         0.43746
     113 ->123         0.15046
     114 ->123         0.26289
     115 ->123         0.41190

 Excited State  56:      Singlet-A      5.3924 eV  229.93 nm  f=0.0007  <S**2>=0.000
     112 ->122         0.15299
     118 ->128        -0.13509
     118 ->130         0.17341
     118 ->131        -0.10371
     118 ->136        -0.12553
     119 ->137        -0.10422
     119 ->138         0.56115
     119 ->140        -0.10046

 Excited State  57:      Singlet-A      5.4051 eV  229.38 nm  f=0.0010  <S**2>=0.000
     111 ->122         0.14768
     112 ->122         0.16117
     117 ->124         0.10059
     117 ->129         0.12616
     118 ->127        -0.18762
     118 ->129        -0.23953
     118 ->130         0.29136
     118 ->131        -0.21406
     119 ->129        -0.13314
     119 ->137         0.13877
     119 ->138        -0.16938
     119 ->139        -0.20959

 Excited State  58:      Singlet-A      5.4334 eV  228.19 nm  f=0.0030  <S**2>=0.000
     111 ->122        -0.13531
     118 ->128         0.54571
     118 ->130         0.17280
     119 ->137         0.16837
     119 ->139         0.23491

 Excited State  59:      Singlet-A      5.4383 eV  227.98 nm  f=0.0155  <S**2>=0.000
     105 ->120         0.22583
     106 ->120        -0.19352
     110 ->121         0.10528
     117 ->124         0.11102
     118 ->129        -0.33271
     118 ->130        -0.17930
     118 ->132        -0.11252
     119 ->130         0.11676
     119 ->139         0.36723

 Excited State  60:      Singlet-A      5.4550 eV  227.28 nm  f=0.0052  <S**2>=0.000
     105 ->120         0.27204
     106 ->120        -0.21614
     110 ->121         0.19744
     111 ->122         0.26120
     112 ->122         0.14074
     117 ->124         0.19373
     118 ->128         0.17360
     118 ->129         0.24385
     118 ->131         0.13707

 Excited State  61:      Singlet-A      5.4770 eV  226.37 nm  f=0.0055  <S**2>=0.000
     102 ->120        -0.14074
     105 ->120         0.12400
     106 ->120         0.53513
     111 ->122         0.10542
     115 ->124        -0.10608
     119 ->139         0.15055

 Excited State  62:      Singlet-A      5.5057 eV  225.19 nm  f=0.0082  <S**2>=0.000
     105 ->120         0.26601
     109 ->121        -0.18000
     110 ->121         0.11145
     114 ->124         0.13096
     115 ->124         0.19473
     115 ->125         0.13273
     115 ->126        -0.14549
     116 ->124         0.12273
     117 ->124        -0.20064
     117 ->125        -0.13002
     117 ->126         0.11457
     118 ->130         0.20714

 Excited State  63:      Singlet-A      5.5107 eV  224.99 nm  f=0.0026  <S**2>=0.000
     105 ->120        -0.16687
     109 ->121         0.13099
     111 ->122         0.25288
     117 ->124        -0.23967
     118 ->129        -0.16067
     118 ->130         0.17224
     118 ->131         0.15013
     118 ->132         0.18473
     119 ->137        -0.11096
     119 ->139         0.24342
     119 ->140         0.23191

 Excited State  64:      Singlet-A      5.5348 eV  224.01 nm  f=0.0018  <S**2>=0.000
     118 ->127        -0.10137
     118 ->129         0.23536
     118 ->130        -0.11040
     118 ->131        -0.24330
     119 ->140         0.33796
     119 ->141        -0.32250

 Excited State  65:      Singlet-A      5.5522 eV  223.31 nm  f=0.0006  <S**2>=0.000
     105 ->120         0.20038
     106 ->120         0.12853
     107 ->120        -0.17967
     109 ->120         0.10715
     109 ->121         0.54907
     119 ->141        -0.11001

 Excited State  66:      Singlet-A      5.5630 eV  222.87 nm  f=0.0001  <S**2>=0.000
     114 ->123         0.57827
     115 ->123        -0.39846

 Excited State  67:      Singlet-A      5.5640 eV  222.83 nm  f=0.0058  <S**2>=0.000
     109 ->121         0.11944
     110 ->121        -0.12722
     111 ->122         0.22789
     113 ->131        -0.10927
     116 ->124         0.13375
     116 ->126        -0.24429
     116 ->127        -0.13813
     116 ->131         0.12839
     117 ->126        -0.12106
     118 ->129         0.15979
     119 ->137        -0.14466
     119 ->141         0.25062

 Excited State  68:      Singlet-A      5.5796 eV  222.21 nm  f=0.0008  <S**2>=0.000
     111 ->122        -0.23667
     116 ->126        -0.11482
     117 ->124         0.27219
     118 ->130         0.13244
     118 ->131         0.37993
     119 ->140         0.23961

 Excited State  69:      Singlet-A      5.5842 eV  222.03 nm  f=0.0066  <S**2>=0.000
     114 ->124         0.20232
     114 ->125         0.27627
     114 ->126        -0.18140
     114 ->127         0.11577
     114 ->130        -0.12904
     115 ->124        -0.17154
     115 ->125        -0.23857
     115 ->126         0.16212
     115 ->130         0.14364
     116 ->127        -0.10462
     118 ->131         0.10945
     119 ->141        -0.10301

 Excited State  70:      Singlet-A      5.6123 eV  220.92 nm  f=0.0069  <S**2>=0.000
     110 ->121         0.27955
     111 ->122        -0.14625
     118 ->131        -0.20544
     119 ->140         0.30281
     119 ->141         0.35254

 Excited State  71:      Singlet-A      5.6165 eV  220.75 nm  f=0.0246  <S**2>=0.000
     110 ->121         0.32054
     111 ->122        -0.21347
     114 ->126         0.11816
     115 ->126         0.10858
     116 ->127        -0.19095
     117 ->124        -0.30786
     117 ->126        -0.11596
     118 ->132         0.21980
     119 ->140        -0.14722

 Excited State  72:      Singlet-A      5.6268 eV  220.35 nm  f=0.0000  <S**2>=0.000
     113 ->123         0.63535
     114 ->123        -0.10749
     115 ->123        -0.11585
     116 ->123         0.20846

 Excited State  73:      Singlet-A      5.6443 eV  219.66 nm  f=0.0006  <S**2>=0.000
     113 ->126         0.22362
     113 ->127         0.27265
     115 ->127        -0.10285
     116 ->124         0.10663
     116 ->127         0.22441
     116 ->129         0.19352
     116 ->130        -0.10790
     116 ->131         0.11668
     118 ->132         0.24003
     119 ->141        -0.18901

 Excited State  74:      Singlet-A      5.6672 eV  218.77 nm  f=0.0157  <S**2>=0.000
     113 ->126        -0.14383
     113 ->127        -0.11533
     114 ->125         0.11761
     114 ->126        -0.12487
     114 ->127         0.10457
     116 ->131        -0.10039
     117 ->124         0.26639
     118 ->132         0.42049

 Excited State  75:      Singlet-A      5.6727 eV  218.56 nm  f=0.0007  <S**2>=0.000
     118 ->144        -0.10138
     119 ->142         0.11449
     119 ->143         0.56820
     119 ->144         0.24663

 Excited State  76:      Singlet-A      5.7145 eV  216.97 nm  f=0.0095  <S**2>=0.000
     104 ->120         0.12058

 The electronic state is 1-A.
 Alpha  occ. eigenvalues --  -88.94235 -88.88773 -88.88697 -88.88500 -88.88489
 Alpha  occ. eigenvalues --  -14.36924 -14.36906 -10.25074 -10.25035 -10.23379
 Alpha  occ. eigenvalues --  -10.23198 -10.23185 -10.22994 -10.22822 -10.22761
 Alpha  occ. eigenvalues --  -10.22274 -10.22225 -10.21747 -10.21542 -10.20512
 Alpha  occ. eigenvalues --  -10.20465 -10.19345 -10.19276 -10.19194 -10.19117
 Alpha  occ. eigenvalues --  -10.19113 -10.19032 -10.18793 -10.18764  -8.02193
 Alpha  occ. eigenvalues --   -7.97179  -7.97096  -7.96922  -7.96922  -5.98665
 Alpha  occ. eigenvalues --   -5.98136  -5.97686  -5.93505  -5.93416  -5.93259
 Alpha  occ. eigenvalues --   -5.93252  -5.93151  -5.93064  -5.92910  -5.92905
 Alpha  occ. eigenvalues --   -5.92726  -5.92654  -5.92448  -5.92436  -0.99769
 Alpha  occ. eigenvalues --   -0.90359  -0.89678  -0.89090  -0.88114  -0.87019
 Alpha  occ. eigenvalues --   -0.86028  -0.80683  -0.78038  -0.76890  -0.76470
 Alpha  occ. eigenvalues --   -0.74791  -0.74386  -0.73598  -0.73135  -0.72011
 Alpha  occ. eigenvalues --   -0.70227  -0.67057  -0.64119  -0.62867  -0.60512
 Alpha  occ. eigenvalues --   -0.60413  -0.58214  -0.57007  -0.55540  -0.55219
 Alpha  occ. eigenvalues --   -0.54168  -0.53736  -0.53085  -0.52878  -0.50589
 Alpha  occ. eigenvalues --   -0.50547  -0.48033  -0.47766  -0.45909  -0.45320
 Alpha  occ. eigenvalues --   -0.43713  -0.42986  -0.42725  -0.41978  -0.41715
 Alpha  occ. eigenvalues --   -0.41285  -0.40958  -0.40920  -0.40630  -0.40306
 Alpha  occ. eigenvalues --   -0.39709  -0.39593  -0.38435  -0.38211  -0.38039
 Alpha  occ. eigenvalues --   -0.37433  -0.36139  -0.35767  -0.35518  -0.34750
 Alpha  occ. eigenvalues --   -0.34459  -0.34190  -0.32452  -0.30953  -0.30072
 Alpha  occ. eigenvalues --   -0.28587  -0.28234  -0.26962  -0.26616  -0.26416
 Alpha  occ. eigenvalues --   -0.26219  -0.25425  -0.22548  -0.19911
 Alpha virt. eigenvalues --   -0.12203  -0.07779  -0.06786  -0.04983  -0.03269
 Alpha virt. eigenvalues --   -0.01974  -0.01822  -0.01410  -0.00998  -0.00685
 Alpha virt. eigenvalues --   -0.00570  -0.00390  -0.00020   0.00349   0.00532

 Mulliken charges:
               1
     1  C   -0.719956
     2  C   -0.685289
     3  C    0.609668
     4  C   -0.261589
     5  C   -0.223172
     6  C    0.527795
     7  H    0.152767
     8  H    0.114774
     9  C   -0.004341
    10  C    0.380934
    11  C    0.427548
    12  C   -0.671374
    13  S   -1.371531
    14  H    0.254672
    15  H    0.168128
    16  N   -0.023752
    17  N   -0.076127
    18  S    0.443823
    19  C   -0.455380
    20  C    0.212504
    21  C    0.385310
    22  C    0.331216
    23  S   -1.071280
    24  H    0.171316
    25  H    0.223487
    26  C    0.296628
    27  C   -0.916972
    28  C    2.269518
    29  C   -0.870657
    30  S   -0.689303
    31  H    0.254715
    32  H    0.153072
    33  H    0.194687
    34  C   -0.673776
    35  C    1.592144
    36  C   -0.857293
    37  C    0.342565
    38  S   -0.526640
    39  H    0.179279
    40  H    0.152359
    41  H    0.259519
 Sum of Mulliken charges =   0.00000

 Dipole moment (field-independent basis, Debye):
    X=             -0.0328    Y=             -1.5981    Z=              0.1195  Tot=              1.6029
 Quadrupole moment (field-independent basis, Debye-Ang):
   XX=           -168.9853   YY=           -188.6327   ZZ=           -210.2617
   XY=              0.1445   XZ=              3.3001   YZ=             -3.4666

 Normal termination of Gaussian 09 at Thu Nov 10 14:39:53 2016.
