 Gaussian 09, Revision D.01,
 Gaussian 09:  ES64L-G09RevD.01 24-Apr-2013

 ----------------------------------------------------------------------
 # wb97xd/6-311++g** td=(singlet,nstates=70) geom=check density=current
 ----------------------------------------------------------------------

 ---
 BT1
 ---
 Structure from the checkpoint file:  "BTtd-wb97xd.chk"
 Charge =  0 Multiplicity = 1

                         Standard orientation:
 ---------------------------------------------------------------------
 Center     Atomic      Atomic             Coordinates (Angstroms)
 Number     Number       Type             X           Y           Z
 ---------------------------------------------------------------------
      1          6           0       -0.692511   -0.696175    0.367588
      2          6           0        0.723081   -0.684523    0.317988
      3          6           0        1.481529    0.466800    0.171432
      4          6           0        0.724673    1.703311    0.112289
      5          6           0       -0.746608    1.693163    0.180160
      6          6           0       -1.478595    0.442545    0.281417
      7          1           0       -1.175556   -1.658914    0.462152
      8          1           0        1.228111   -1.639220    0.369506
      9          6           0       -2.925021    0.397493    0.258217
     10          6           0       -3.853723    1.411396    0.327221
     11          6           0       -5.208183    0.998406    0.226730
     12          6           0       -5.398608   -0.354340    0.065678
     13         16           0       -3.788458   -1.210889    0.053071
     14          1           0       -3.552297    2.439452    0.436167
     15          1           0       -6.032709    1.695516    0.260518
     16          7           0       -1.324803    2.891502    0.133367
     17          7           0        1.281848    2.908940    0.007570
     18         16           0       -0.031030    4.108113   -0.004369
     19          6           0        5.419983   -0.250784   -0.010103
     20          6           0        5.160492    1.021553   -0.455130
     21          6           0        3.793242    1.408465   -0.413988
     22          6           0        2.926419    0.445959    0.054023
     23         16           0        3.866960   -1.063732    0.497156
     24          1           0        5.947568    1.681502   -0.792165
     25          1           0        3.442678    2.382178   -0.711969
     26          6           0       -9.051771   -1.813780   -0.422565
     27          6           0       -8.161563   -2.841542   -0.493726
     28          6           0       -6.796113   -2.445457   -0.323399
     29          6           0       -6.610250   -1.100155   -0.114771
     30         16           0       -8.229529   -0.238560   -0.123828
     31          1           0      -10.122441   -1.828987   -0.517745
     32          1           0       -8.461321   -3.864084   -0.669137
     33          1           0       -5.971758   -3.143599   -0.358986
     34          6           0        6.666139   -0.963186    0.081375
     35          6           0        7.085563   -1.900080    0.992748
     36          6           0        8.408839   -2.398805    0.771183
     37          6           0        9.026442   -1.866904   -0.317882
     38         16           0        7.974307   -0.677672   -1.168761
     39          1           0        6.469215   -2.205013    1.827920
     40          1           0        8.880332   -3.126949    1.414942
     41          1           0       10.012118   -2.051287   -0.698981
 ---------------------------------------------------------------------

 SCF Done:  E(RwB97XD) =  -2945.84812757     A.U. after   19 cycles

 Excitation energies and oscillator strengths:

 Excited State   1:      Singlet-A      2.3097 eV  536.79 nm  f=0.7502  <S**2>=0.000
     117 ->120        -0.14025
     119 ->120         0.67614
 This state for optimization and/or second-order correction.
 Total Energy, E(TD-HF/TD-KS) =  -2945.76324584
 Copying the excited state density for this state as the 1-particle RhoCI density.

 Excited State   2:      Singlet-A      3.4287 eV  361.60 nm  f=0.1709  <S**2>=0.000
     111 ->120         0.14426
     118 ->120         0.57643
     118 ->121         0.10801
     119 ->121        -0.26803
     119 ->122         0.15847

 Excited State   3:      Singlet-A      3.5767 eV  346.64 nm  f=0.7539  <S**2>=0.000
     117 ->120         0.13560
     118 ->120         0.23882
     118 ->122         0.24470
     119 ->121         0.54826
     119 ->122         0.14943

 Excited State   4:      Singlet-A      4.0029 eV  309.73 nm  f=0.1164  <S**2>=0.000
     112 ->120        -0.15227
     118 ->120        -0.21631
     118 ->121         0.27977
     118 ->122         0.15583
     119 ->122         0.50178

 Excited State   5:      Singlet-A      4.1659 eV  297.62 nm  f=0.0066  <S**2>=0.000
     109 ->120        -0.12625
     112 ->120         0.31674
     113 ->120        -0.28021
     116 ->120         0.34546
     117 ->120         0.27944

 Excited State   6:      Singlet-A      4.1778 eV  296.77 nm  f=0.0093  <S**2>=0.000
     109 ->120         0.21529
     110 ->120         0.12899
     111 ->120         0.11581
     112 ->120        -0.23018
     113 ->120        -0.10181
     114 ->120        -0.27113
     115 ->120        -0.22548
     117 ->120         0.38078

 Excited State   7:      Singlet-A      4.2562 eV  291.30 nm  f=0.0182  <S**2>=0.000
     109 ->120         0.51179
     109 ->121        -0.22399
     112 ->120         0.31736
     119 ->122         0.11681

 Excited State   8:      Singlet-A      4.3527 eV  284.85 nm  f=0.0644  <S**2>=0.000
     109 ->120        -0.22082
     112 ->120         0.31853
     113 ->120         0.12298
     114 ->120        -0.27647
     114 ->122        -0.10347
     115 ->120        -0.20077
     116 ->120        -0.31071
     116 ->121        -0.10091
     117 ->122         0.10443

 Excited State   9:      Singlet-A      4.4513 eV  278.53 nm  f=0.0144  <S**2>=0.000
     110 ->120         0.24318
     113 ->120         0.24939
     114 ->120         0.29272
     115 ->120         0.22055
     116 ->120        -0.17215
     117 ->120         0.31466
     119 ->121        -0.11498

 Excited State  10:      Singlet-A      4.7325 eV  261.99 nm  f=0.0010  <S**2>=0.000
     115 ->120         0.10741
     116 ->120        -0.11738
     117 ->121         0.22325
     118 ->121        -0.11961
     118 ->122         0.25116
     118 ->124         0.11544
     119 ->123        -0.11304
     119 ->124         0.36808
     119 ->125        -0.14744
     119 ->132        -0.13278

 Excited State  11:      Singlet-A      4.7971 eV  258.46 nm  f=0.0012  <S**2>=0.000
     108 ->120         0.43563
     108 ->121        -0.14963
     117 ->123        -0.17022
     119 ->123         0.42847

 Excited State  12:      Singlet-A      4.8423 eV  256.04 nm  f=0.0012  <S**2>=0.000
     108 ->120        -0.40065
     108 ->121         0.12984
     117 ->123        -0.15503
     119 ->123         0.43212
     119 ->132        -0.10906

 Excited State  13:      Singlet-A      4.8529 eV  255.49 nm  f=0.0166  <S**2>=0.000
     117 ->121         0.12221
     118 ->122         0.15711
     118 ->134        -0.22902
     119 ->127         0.19179
     119 ->128        -0.12945
     119 ->130         0.17017
     119 ->132         0.19066
     119 ->133        -0.12751
     119 ->134         0.30575
     119 ->136         0.13995

 Excited State  14:      Singlet-A      4.8915 eV  253.47 nm  f=0.0102  <S**2>=0.000
     108 ->120         0.10136
     117 ->121        -0.14441
     118 ->122        -0.12992
     118 ->124         0.14352
     118 ->127        -0.11249
     118 ->132        -0.19471
     118 ->133         0.17658
     119 ->123        -0.10598
     119 ->126        -0.11123
     119 ->128        -0.11921
     119 ->132        -0.19279
     119 ->133         0.14850
     119 ->134         0.24781
     119 ->136         0.16593

 Excited State  15:      Singlet-A      4.9339 eV  251.29 nm  f=0.0138  <S**2>=0.000
     113 ->120         0.34510
     113 ->121         0.23640
     113 ->122        -0.14006
     116 ->120         0.20458
     116 ->121         0.27762
     116 ->122        -0.19092
     117 ->122         0.13373
     119 ->122        -0.11846

 Excited State  16:      Singlet-A      5.0020 eV  247.87 nm  f=0.0507  <S**2>=0.000
     111 ->120        -0.17814
     112 ->120        -0.16035
     113 ->120        -0.16509
     114 ->122        -0.12043
     115 ->120         0.16027
     115 ->122         0.15364
     116 ->121        -0.16014
     117 ->121        -0.15070
     117 ->122         0.24522
     118 ->121         0.29336
     119 ->122        -0.19991

 Excited State  17:      Singlet-A      5.0469 eV  245.67 nm  f=0.0634  <S**2>=0.000
     114 ->120        -0.27457
     114 ->122        -0.22800
     115 ->120         0.29532
     115 ->121         0.13834
     115 ->122         0.34744
     117 ->122        -0.12075
     118 ->121        -0.14289

 Excited State  18:      Singlet-A      5.1545 eV  240.54 nm  f=0.0020  <S**2>=0.000
     118 ->128         0.10503
     118 ->129        -0.10125
     118 ->140        -0.23825
     119 ->127         0.14422
     119 ->129         0.15726
     119 ->130        -0.11059
     119 ->132        -0.12468
     119 ->133        -0.12796
     119 ->135         0.11735
     119 ->137         0.14192
     119 ->138         0.14277
     119 ->140         0.31705

 Excited State  19:      Singlet-A      5.1935 eV  238.73 nm  f=0.0002  <S**2>=0.000
     102 ->123        -0.12293
     111 ->123        -0.17142
     112 ->123         0.61871
     118 ->123        -0.13395

 Excited State  20:      Singlet-A      5.2287 eV  237.12 nm  f=0.0249  <S**2>=0.000
     110 ->120        -0.12805
     111 ->120        -0.16481
     118 ->128         0.17478
     118 ->139         0.21248
     119 ->124        -0.16284
     119 ->128         0.22403
     119 ->130        -0.10765
     119 ->132        -0.16771
     119 ->134         0.10569
     119 ->136         0.17702
     119 ->139         0.18320
     119 ->140        -0.10829

 Excited State  21:      Singlet-A      5.3197 eV  233.07 nm  f=0.0281  <S**2>=0.000
     105 ->120         0.14973
     110 ->120         0.34610
     111 ->120         0.12014
     111 ->122         0.15697
     117 ->120        -0.18125
     117 ->121        -0.11501
     118 ->124        -0.11647
     118 ->139         0.11244
     119 ->124         0.18241
     119 ->127         0.11710
     119 ->128         0.15741
     119 ->139         0.11718

 Excited State  22:      Singlet-A      5.3673 eV  231.00 nm  f=0.0387  <S**2>=0.000
     113 ->121        -0.26405
     113 ->122         0.10464
     116 ->120        -0.16349
     116 ->121         0.26520
     118 ->121         0.23443
     118 ->124        -0.19752
     119 ->122        -0.10666
     119 ->137        -0.19065

 Excited State  23:      Singlet-A      5.3903 eV  230.01 nm  f=0.0143  <S**2>=0.000
     102 ->120         0.11490
     110 ->120        -0.12467
     111 ->120         0.27438
     112 ->121         0.15851
     114 ->122        -0.12187
     119 ->125         0.14864
     119 ->128        -0.13046
     119 ->129        -0.11308
     119 ->130         0.20986
     119 ->133        -0.12810
     119 ->134        -0.13294
     119 ->137        -0.10312
     119 ->139         0.17024

 Excited State  24:      Singlet-A      5.4545 eV  227.31 nm  f=0.0202  <S**2>=0.000
     110 ->120        -0.15500
     113 ->121         0.27761
     114 ->121         0.17226
     114 ->122         0.27323
     115 ->120        -0.12669
     115 ->121         0.14799
     115 ->122         0.18729
     116 ->121        -0.21122
     116 ->122         0.16164
     118 ->124        -0.12437
     119 ->137        -0.10450

 Excited State  25:      Singlet-A      5.4608 eV  227.04 nm  f=0.0001  <S**2>=0.000
     118 ->126         0.16462
     119 ->124         0.23030
     119 ->125         0.41391
     119 ->127        -0.24009
     119 ->138         0.14454

 Excited State  26:      Singlet-A      5.5035 eV  225.28 nm  f=0.0503  <S**2>=0.000
     111 ->121        -0.10585
     113 ->122         0.11749
     114 ->121         0.16223
     114 ->122         0.26729
     115 ->121         0.10961
     115 ->122         0.19613
     116 ->121         0.17395
     118 ->124         0.19592
     119 ->130         0.18438
     119 ->134        -0.10454
     119 ->137         0.13134

 Excited State  27:      Singlet-A      5.6478 eV  219.53 nm  f=0.0027  <S**2>=0.000
     110 ->120        -0.10537
     114 ->132        -0.14871
     115 ->132        -0.12102
     118 ->122        -0.15279
     118 ->125         0.20808
     119 ->124         0.13678
     119 ->126         0.23717
     119 ->128        -0.12169
     119 ->131         0.11536
     119 ->137        -0.11633

 Excited State  28:      Singlet-A      5.6716 eV  218.61 nm  f=0.0349  <S**2>=0.000
     110 ->120        -0.16265
     111 ->120         0.30708
     116 ->134         0.12767
     118 ->121         0.23939
     119 ->137         0.21842

 Excited State  29:      Singlet-A      5.6867 eV  218.03 nm  f=0.0122  <S**2>=0.000
     110 ->120         0.14419
     111 ->120         0.14347
     117 ->120        -0.13924
     117 ->121         0.17519
     118 ->122         0.23812
     118 ->125         0.10872
     118 ->130        -0.14981
     119 ->120        -0.10004
     119 ->124        -0.18593
     119 ->126         0.12587
     119 ->127        -0.12583
     119 ->128        -0.11084

 Excited State  30:      Singlet-A      5.7004 eV  217.50 nm  f=0.0003  <S**2>=0.000
     114 ->124        -0.10522
     114 ->132         0.21086
     114 ->133        -0.11169
     114 ->136        -0.11817
     114 ->139        -0.13650
     115 ->132         0.16063
     115 ->133        -0.11158
     118 ->124         0.10415
     118 ->125         0.17282
     119 ->126         0.25413

 Excited State  31:      Singlet-A      5.7123 eV  217.05 nm  f=0.0069  <S**2>=0.000
     111 ->120        -0.12831
     113 ->130        -0.11617
     113 ->132        -0.10269
     113 ->134        -0.20655
     113 ->136        -0.13260
     113 ->140         0.14693
     116 ->130         0.11619
     116 ->132         0.10829
     116 ->134         0.27310
     116 ->136         0.14618
     116 ->140        -0.11857
     117 ->134         0.15182
     118 ->121        -0.10074

 Excited State  32:      Singlet-A      5.8022 eV  213.68 nm  f=0.0150  <S**2>=0.000
     114 ->124        -0.11886
     114 ->128         0.13644
     114 ->133        -0.18060
     114 ->139         0.12387
     115 ->124         0.13951
     115 ->126        -0.12075
     115 ->127        -0.11293
     115 ->128        -0.19254
     115 ->133         0.21981
     115 ->136        -0.10886
     115 ->139        -0.19824
     115 ->141         0.11345

 Excited State  33:      Singlet-A      5.8236 eV  212.90 nm  f=0.0008  <S**2>=0.000
     113 ->127         0.13115
     113 ->128        -0.11819
     113 ->133        -0.13798
     113 ->134         0.22233
     113 ->140         0.19651
     116 ->127         0.13540
     116 ->128        -0.11618
     116 ->133        -0.14927
     116 ->134         0.18591
     116 ->135         0.10247
     116 ->138         0.12187
     116 ->140         0.25210

 Excited State  34:      Singlet-A      5.8848 eV  210.68 nm  f=0.0090  <S**2>=0.000
     118 ->131        -0.13243
     119 ->125         0.12405
     119 ->128         0.14570
     119 ->129         0.35206
     119 ->130         0.19069
     119 ->131         0.11510
     119 ->138        -0.25297
     119 ->145         0.10709

 Excited State  35:      Singlet-A      5.8922 eV  210.42 nm  f=0.0213  <S**2>=0.000
     114 ->120        -0.30321
     114 ->121         0.10215
     114 ->122         0.18004
     114 ->124         0.10389
     115 ->120         0.39995
     115 ->121        -0.10754
     115 ->122        -0.20559
     115 ->124        -0.15395

 Excited State  36:      Singlet-A      5.9423 eV  208.65 nm  f=0.0241  <S**2>=0.000
     113 ->120         0.15254
     116 ->120         0.12000
     117 ->125         0.16491
     118 ->126         0.25701
     119 ->125         0.16381
     119 ->127         0.26301
     119 ->133         0.17753
     119 ->135        -0.12421
     119 ->137         0.10335
     119 ->138        -0.15833
     119 ->139         0.13995

 Excited State  37:      Singlet-A      5.9472 eV  208.48 nm  f=0.0312  <S**2>=0.000
     111 ->122         0.10530
     113 ->120         0.32214
     113 ->121        -0.19716
     116 ->120         0.25284
     116 ->121        -0.13783
     117 ->124        -0.11014
     118 ->126        -0.13115
     119 ->127        -0.14071
     119 ->133        -0.12627

 Excited State  38:      Singlet-A      5.9845 eV  207.18 nm  f=0.0370  <S**2>=0.000
     105 ->120        -0.17644
     106 ->120         0.11083
     110 ->121         0.14921
     111 ->122         0.25143
     112 ->120        -0.11247
     112 ->121        -0.17949
     113 ->120        -0.13920
     113 ->121         0.13246
     116 ->120        -0.16010
     117 ->122        -0.11034
     117 ->124        -0.13553
     118 ->122         0.10285
     118 ->130        -0.10980
     119 ->130         0.13663

 Excited State  39:      Singlet-A      6.0331 eV  205.51 nm  f=0.0443  <S**2>=0.000
     105 ->120        -0.10833
     109 ->123         0.12865
     110 ->121         0.14837
     111 ->121        -0.14252
     112 ->120         0.18390
     112 ->121         0.36939
     112 ->122         0.12662
     112 ->124        -0.17064
     117 ->124        -0.10466
     118 ->130        -0.11338

 Excited State  40:      Singlet-A      6.0736 eV  204.14 nm  f=0.0080  <S**2>=0.000
     107 ->120         0.13766
     112 ->121        -0.15000
     118 ->125        -0.11014
     118 ->129        -0.18360
     119 ->126        -0.13484
     119 ->127         0.11834
     119 ->131         0.32409
     119 ->137        -0.14811
     119 ->138         0.19420

 Excited State  41:      Singlet-A      6.0850 eV  203.76 nm  f=0.0029  <S**2>=0.000
     101 ->120        -0.10398
     103 ->120        -0.10790
     104 ->120         0.27832
     107 ->120         0.39611
     107 ->121         0.14454
     108 ->121         0.11198
     108 ->122        -0.11116
     109 ->120         0.15761
     109 ->121         0.17619
     119 ->131        -0.11192

 Excited State  42:      Singlet-A      6.1564 eV  201.39 nm  f=0.0043  <S**2>=0.000
     105 ->120         0.18077
     111 ->121         0.17768
     112 ->121         0.11605
     117 ->121         0.30753
     117 ->124        -0.17624
     118 ->121         0.13697
     118 ->122        -0.24476
     119 ->121         0.16051
     119 ->137         0.11409

 Excited State  43:      Singlet-A      6.1712 eV  200.91 nm  f=0.0059  <S**2>=0.000
     111 ->120        -0.12903
     111 ->121         0.17600
     112 ->121         0.12827
     117 ->122        -0.19163
     118 ->131        -0.11889
     119 ->127         0.10769
     119 ->130         0.11734
     119 ->138         0.28308
     119 ->139        -0.15385
     119 ->140        -0.10555

 Excited State  44:      Singlet-A      6.2055 eV  199.80 nm  f=0.0040  <S**2>=0.000
     110 ->121         0.20610
     117 ->121         0.13420
     117 ->122         0.17481
     117 ->126         0.10041
     118 ->122        -0.15565
     118 ->127         0.13189
     119 ->126         0.13969
     119 ->128         0.10405
     119 ->131        -0.13860
     119 ->137        -0.12260
     119 ->141         0.14731

 Excited State  45:      Singlet-A      6.2173 eV  199.42 nm  f=0.0034  <S**2>=0.000
     117 ->122         0.11290
     118 ->127        -0.16240
     118 ->131        -0.14329
     119 ->129         0.30063
     119 ->131        -0.14266
     119 ->134        -0.12504
     119 ->136         0.14833
     119 ->137        -0.19902
     119 ->149        -0.11105

 Excited State  46:      Singlet-A      6.2461 eV  198.50 nm  f=0.0198  <S**2>=0.000
     100 ->120        -0.10671
     103 ->120        -0.14387
     104 ->120        -0.11567
     105 ->120        -0.10562
     105 ->123         0.12019
     106 ->120         0.23298
     107 ->122        -0.11448
     108 ->120         0.16146
     108 ->121         0.15825
     110 ->123         0.22198
     117 ->123         0.18009
     119 ->123         0.14716
     119 ->143         0.10700

 Excited State  47:      Singlet-A      6.2719 eV  197.68 nm  f=0.0086  <S**2>=0.000
     105 ->123         0.14212
     106 ->120        -0.10812
     110 ->123         0.27483
     117 ->123         0.23778
     118 ->123        -0.22016
     118 ->127         0.12648
     119 ->123         0.17541
     119 ->128         0.12566
     119 ->130         0.12321
     119 ->138         0.15412
     119 ->145        -0.12933

 Excited State  48:      Singlet-A      6.3200 eV  196.18 nm  f=0.0297  <S**2>=0.000
     105 ->123         0.13013
     109 ->123         0.35849
     110 ->123         0.18656
     111 ->123         0.17528
     112 ->121        -0.12138
     112 ->123         0.11311
     117 ->123         0.15697
     118 ->123         0.34427

 Excited State  49:      Singlet-A      6.3293 eV  195.89 nm  f=0.0172  <S**2>=0.000
     103 ->120        -0.12027
     104 ->120        -0.10855
     105 ->120         0.23683
     106 ->120         0.14622
     107 ->121         0.10023
     107 ->122        -0.11576
     108 ->120         0.11751
     108 ->121         0.14162
     109 ->123         0.12969
     110 ->120        -0.10454
     110 ->121        -0.19845
     118 ->123         0.15284
     119 ->130         0.11378
     119 ->143        -0.10778

 Excited State  50:      Singlet-A      6.3577 eV  195.01 nm  f=0.0202  <S**2>=0.000
     105 ->120        -0.14330
     110 ->121         0.10455
     118 ->132        -0.12898
     118 ->145         0.10257
     119 ->130         0.12104
     119 ->131         0.25671
     119 ->136        -0.10119
     119 ->141        -0.11997
     119 ->143         0.12703
     119 ->145        -0.20579

 Excited State  51:      Singlet-A      6.4156 eV  193.25 nm  f=0.0024  <S**2>=0.000
     109 ->123        -0.24464
     118 ->145        -0.10766
     119 ->135        -0.28482
     119 ->140         0.14217
     119 ->145         0.30766

 Excited State  52:      Singlet-A      6.4589 eV  191.96 nm  f=0.0111  <S**2>=0.000
     109 ->123         0.18997
     118 ->123        -0.13850
     118 ->144        -0.12167
     118 ->145        -0.12770
     119 ->128         0.11282
     119 ->141        -0.11025
     119 ->144        -0.18461
     119 ->145         0.22044
     119 ->146        -0.16031
     119 ->148        -0.18686

 Excited State  53:      Singlet-A      6.4740 eV  191.51 nm  f=0.0111  <S**2>=0.000
     109 ->123        -0.28132
     118 ->123         0.27584
     118 ->131        -0.12169
     118 ->132        -0.11714
     119 ->125         0.10867
     119 ->135         0.32142
     119 ->143        -0.10371

 Excited State  54:      Singlet-A      6.4978 eV  190.81 nm  f=0.0028  <S**2>=0.000
     105 ->120        -0.11153
     117 ->127        -0.12399
     118 ->123         0.13500
     118 ->128        -0.14532
     118 ->129         0.10843
     118 ->136         0.15312
     119 ->132         0.22955
     119 ->136         0.13688
     119 ->139         0.16827
     119 ->141         0.12360
     119 ->142         0.10527

 The electronic state is 1-A.
 Alpha  occ. eigenvalues --  -89.11250 -89.05516 -89.05461 -89.05418 -89.05403
 Alpha  occ. eigenvalues --  -14.49433 -14.49410 -10.36767 -10.36729 -10.34986
 Alpha  occ. eigenvalues --  -10.34815 -10.34737 -10.34570 -10.34427 -10.34393
 Alpha  occ. eigenvalues --  -10.34067 -10.34021 -10.33180 -10.33010 -10.32202
 Alpha  occ. eigenvalues --  -10.32154 -10.30668 -10.30538 -10.30514 -10.30424
 Alpha  occ. eigenvalues --  -10.30389 -10.30377 -10.30201 -10.30188  -8.14602
 Alpha  occ. eigenvalues --   -8.09331  -8.09271  -8.09243  -8.09238  -6.09618
 Alpha  occ. eigenvalues --   -6.09080  -6.08599  -6.04198  -6.04132  -6.04115
 Alpha  occ. eigenvalues --   -6.04114  -6.03838  -6.03774  -6.03759  -6.03758
 Alpha  occ. eigenvalues --   -6.03391  -6.03340  -6.03287  -6.03271  -1.10162
 Alpha  occ. eigenvalues --   -1.00572  -0.99866  -0.99193  -0.98290  -0.97059
 Alpha  occ. eigenvalues --   -0.96146  -0.90761  -0.87979  -0.86842  -0.86334
 Alpha  occ. eigenvalues --   -0.84500  -0.84044  -0.83254  -0.82790  -0.81673
 Alpha  occ. eigenvalues --   -0.79812  -0.76586  -0.73544  -0.72292  -0.69750
 Alpha  occ. eigenvalues --   -0.69635  -0.67354  -0.66055  -0.64544  -0.64364
 Alpha  occ. eigenvalues --   -0.63095  -0.62615  -0.61995  -0.61799  -0.59434
 Alpha  occ. eigenvalues --   -0.59341  -0.56640  -0.56332  -0.54582  -0.54353
 Alpha  occ. eigenvalues --   -0.52027  -0.51280  -0.50897  -0.50198  -0.50027
 Alpha  occ. eigenvalues --   -0.49807  -0.49644  -0.49097  -0.48858  -0.48503
 Alpha  occ. eigenvalues --   -0.47832  -0.47744  -0.47083  -0.46859  -0.46062
 Alpha  occ. eigenvalues --   -0.45222  -0.44325  -0.44045  -0.43345  -0.43087
 Alpha  occ. eigenvalues --   -0.42220  -0.41864  -0.40383  -0.39160  -0.37972
 Alpha  occ. eigenvalues --   -0.36347  -0.35489  -0.34366  -0.34025  -0.33859
 Alpha  occ. eigenvalues --   -0.33664  -0.32715  -0.29304  -0.26134
 Alpha virt. eigenvalues --   -0.06597  -0.01257  -0.00402   0.02356   0.03647
 Alpha virt. eigenvalues --    0.03773   0.03923   0.04338   0.05017   0.05141
 Alpha virt. eigenvalues --    0.05233   0.05474   0.05518   0.05729   0.06135

 Mulliken charges:
               1
     1  C   -0.805537
     2  C   -0.761860
     3  C    0.618707
     4  C   -0.218401
     5  C   -0.178933
     6  C    0.503908
     7  H    0.177735
     8  H    0.133255
     9  C   -0.059239
    10  C    0.419580
    11  C    0.474869
    12  C   -0.711304
    13  S   -1.414571
    14  H    0.314427
    15  H    0.225264
    16  N   -0.078930
    17  N   -0.131498
    18  S    0.333159
    19  C   -0.538196
    20  C    0.226139
    21  C    0.411515
    22  C    0.350787
    23  S   -1.091282
    24  H    0.229499
    25  H    0.281641
    26  C    0.278492
    27  C   -1.082377
    28  C    2.472590
    29  C   -0.966935
    30  S   -0.732130
    31  H    0.315403
    32  H    0.210503
    33  H    0.253508
    34  C   -0.755311
    35  C    1.768770
    36  C   -1.007204
    37  C    0.341321
    38  S   -0.569938
    39  H    0.238379
    40  H    0.206808
    41  H    0.317388
 Sum of Mulliken charges =   0.00000

 Dipole moment (field-independent basis, Debye):
    X=             -0.7005    Y=             -4.9482    Z=              0.0249  Tot=              4.9976
 Quadrupole moment (field-independent basis, Debye-Ang):
   XX=           -128.2675   YY=           -196.8190   ZZ=           -209.5649
   XY=              1.2860   XZ=              3.6127   YZ=             -3.6391

 Normal termination of Gaussian 09 at Wed Dec  7 03:49:58 2016.
