 Gaussian 09, Revision D.01,
 Gaussian 09:  ES64L-G09RevD.01 24-Apr-2013

 -------------------------------------------
 # opt=(modredundant,tight) RHF/6-311g** gfp
 -------------------------------------------

 -------
 HNC-HCN
 -------
 Symbolic Z-matrix:
 Charge =  0 Multiplicity = 1

 SCF Done:  E(RHF) =  -92.7404664952     A.U. after   12 cycles
 SCF Done:  E(RHF) =  -92.8305241516     A.U. after   12 cycles
 SCF Done:  E(RHF) =  -92.8749646461     A.U. after   13 cycles
 SCF Done:  E(RHF) =  -92.8794991305     A.U. after   12 cycles
 SCF Done:  E(RHF) =  -92.8804144705     A.U. after   10 cycles
 SCF Done:  E(RHF) =  -92.8804379234     A.U. after    9 cycles
 SCF Done:  E(RHF) =  -92.8804386030     A.U. after    8 cycles
 SCF Done:  E(RHF) =  -92.8804386742     A.U. after    4 cycles
 Optimization completed.
    -- Stationary point found.
 SCF Done:  E(RHF) =  -92.8769750402     A.U. after   12 cycles
 SCF Done:  E(RHF) =  -92.8776759889     A.U. after   11 cycles
 Optimization completed.
 SCF Done:  E(RHF) =  -92.8935981052     A.U. after   11 cycles
 SCF Done:  E(RHF) =  -92.8938259548     A.U. after    9 cycles
 SCF Done:  E(RHF) =  -92.8938263313     A.U. after    7 cycles
 SCF Done:  E(RHF) =  -92.8938263384     A.U. after    5 cycles
 SCF Done:  E(RHF) =  -92.8963003627     A.U. after   11 cycles
 SCF Done:  E(RHF) =  -92.8964394659     A.U. after    9 cycles
 SCF Done:  E(RHF) =  -92.8964396151     A.U. after    6 cycles
    -- Stationary point found.
 SCF Done:  E(RHF) =  -92.8982729297     A.U. after   11 cycles
 SCF Done:  E(RHF) =  -92.8983455309     A.U. after    9 cycles
 SCF Done:  E(RHF) =  -92.8983455720     A.U. after    6 cycles
 Optimization completed.
    -- Stationary point found.

                         Standard orientation:
 ---------------------------------------------------------------------
 Center     Atomic      Atomic             Coordinates (Angstroms)
 Number     Number       Type             X           Y           Z
 ---------------------------------------------------------------------
      1          7           0        0.014425    0.637768    0.000000
      2          6           0        0.014425   -0.489346    0.000000
      3          1           0       -0.187527   -1.528299    0.000000
 ---------------------------------------------------------------------

 The electronic state is 1-A'.
 Alpha  occ. eigenvalues --  -15.58834 -11.27964  -1.25044  -0.80822  -0.57948
 Alpha  occ. eigenvalues --   -0.50355  -0.50309
 Alpha virt. eigenvalues --    0.14968   0.18634   0.18965   0.30539   0.57344
 Alpha virt. eigenvalues --    0.57362   0.59086   0.74560   0.79174   0.90543
 Alpha virt. eigenvalues --    0.90893   1.20468   1.33254   1.40050   1.46385

 Mulliken charges:
               1
     1  N   -0.291946
     2  C    0.092809
     3  H    0.199137
 Sum of Mulliken charges =   0.00000

 Dipole moment (field-independent basis, Debye):
    X=             -0.2589    Y=             -3.1677    Z=              0.0000  Tot=              3.1783
 Quadrupole moment (field-independent basis, Debye-Ang):
   XX=            -11.6252   YY=             -9.7542   ZZ=            -11.6807
   XY=              0.3391   XZ=              0.0000   YZ=              0.0000

 Normal termination of Gaussian 09 at Mon Sep 26 18:28:38 2016.
