 Gaussian 09, Revision D.01,
 Gaussian 09:  ES64L-G09RevD.01 24-Apr-2013

 -------------------------------------------
 # opt=(modredundant,tight) RHF/6-311g** gfp
 -------------------------------------------

 -------
 HNC-HCN
 -------
 Symbolic Z-matrix:
 Charge =  0 Multiplicity = 1

 SCF Done:  E(RHF) =  -92.7499989934     A.U. after   10 cycles
 SCF Done:  E(RHF) =  -92.8393319949     A.U. after   11 cycles
 SCF Done:  E(RHF) =  -92.7573693280     A.U. after   11 cycles
 SCF Done:  E(RHF) =  -92.8821260152     A.U. after    9 cycles
 SCF Done:  E(RHF) =  -92.8825049331     A.U. after    9 cycles
 SCF Done:  E(RHF) =  -92.8826014610     A.U. after    8 cycles
 SCF Done:  E(RHF) =  -92.8826057504     A.U. after    7 cycles
 Optimization completed.
    -- Stationary point found.

                         Standard orientation:
 ---------------------------------------------------------------------
 Center     Atomic      Atomic             Coordinates (Angstroms)
 Number     Number       Type             X           Y           Z
 ---------------------------------------------------------------------
      1          7           0        0.000000    0.000000    0.422094
      2          6           0        0.000000    0.000000   -0.726870
      3          1           0        0.000000    0.000000    1.406563
 ---------------------------------------------------------------------

 The electronic state is 1-SG.
 Alpha  occ. eigenvalues --  -15.59727 -11.28482  -1.27470  -0.88138  -0.52486
 Alpha  occ. eigenvalues --   -0.52486  -0.48373
 Alpha virt. eigenvalues --    0.14836   0.19362   0.19362   0.37575   0.50250
 Alpha virt. eigenvalues --    0.60510   0.60510   0.65091   0.85832   0.85832
 Alpha virt. eigenvalues --    0.96968   1.23133   1.31260   1.44926   1.44926

 Mulliken charges:
               1
     1  N   -0.381565
     2  C    0.117816
     3  H    0.263750
 Sum of Mulliken charges =   0.00000

 Dipole moment (field-independent basis, Debye):
    X=              0.0000    Y=              0.0000    Z=              2.9471  Tot=              2.9471
 Quadrupole moment (field-independent basis, Debye-Ang):
   XX=            -11.8595   YY=            -11.8595   ZZ=            -10.2233
   XY=              0.0000   XZ=              0.0000   YZ=              0.0000

 Normal termination of Gaussian 09 at Mon Sep 26 18:22:15 2016.
