 Gaussian 09, Revision D.01,
 Gaussian 09:  ES64L-G09RevD.01 24-Apr-2013

 ----------------------------------------
 # opt=(calcfc,ts,tight) RHF/6-311g** gfp
 ----------------------------------------

 -------
 HNC-HCN
 -------
 Symbolic Z-matrix:
 Charge =  0 Multiplicity = 1

 SCF Done:  E(RHF) =  -92.7349325434     A.U. after   13 cycles

  Exact polarizability:   0.000   0.000   0.000   0.000   0.000   0.000
 Approx polarizability:  11.533   0.342  14.715   0.000   0.000   8.861

 SCF Done:  E(RHF) =  -92.8108756855     A.U. after   13 cycles
 SCF Done:  E(RHF) =  -92.8195131850     A.U. after   12 cycles
 SCF Done:  E(RHF) =  -92.8209360596     A.U. after   11 cycles
 SCF Done:  E(RHF) =  -92.8209858382     A.U. after   11 cycles
 SCF Done:  E(RHF) =  -92.8209862781     A.U. after    8 cycles
 SCF Done:  E(RHF) =  -92.8209862819     A.U. after    7 cycles
 Optimization completed.
    -- Stationary point found.

                         Standard orientation:
 ---------------------------------------------------------------------
 Center     Atomic      Atomic             Coordinates (Angstroms)
 Number     Number       Type             X           Y           Z
 ---------------------------------------------------------------------
      1          7           0        0.080912   -0.565700    0.000000
      2          6           0        0.080912    0.597799    0.000000
      3          1           0       -1.051862    0.373105    0.000000
 ---------------------------------------------------------------------

 The electronic state is 1-A'.
 Alpha  occ. eigenvalues --  -15.64640 -11.28282  -1.31010  -0.71419  -0.62188
 Alpha  occ. eigenvalues --   -0.53490  -0.49431
 Alpha virt. eigenvalues --    0.09718   0.17426   0.17784   0.35286   0.46058
 Alpha virt. eigenvalues --    0.58350   0.59570   0.71082   0.75307   0.86307
 Alpha virt. eigenvalues --    0.86439   1.02837   1.24863   1.26636   1.47993

 Mulliken charges:
               1
     1  N   -0.138422
     2  C   -0.073142
     3  H    0.211565
 Sum of Mulliken charges =   0.00000

 Dipole moment (field-independent basis, Debye):
    X=             -1.4276    Y=              0.2199    Z=              0.0000  Tot=              1.4444
 Quadrupole moment (field-independent basis, Debye-Ang):
   XX=             -9.6839   YY=            -14.3062   ZZ=            -12.1107
   XY=             -0.6783   XZ=              0.0000   YZ=              0.0000

 Normal termination of Gaussian 09 at Tue Sep 27 11:41:56 2016.
