 Gaussian 09, Revision D.01,
 Gaussian 09:  ES64L-G09RevD.01 24-Apr-2013

 -----------------------------
 # irc=calcfc rhf/6-311g** gfp
 -----------------------------

 -------
 HNC-HCN
 -------
 Symbolic Z-matrix:
 Charge =  0 Multiplicity = 1

 SCF Done:  E(RHF) =  -92.8209862819     A.U. after   13 cycles
 SCF Done:  E(RHF) =  -92.8213012486     A.U. after   12 cycles
 SCF Done:  E(RHF) =  -92.8222310346     A.U. after   12 cycles
 SCF Done:  E(RHF) =  -92.8237328628     A.U. after   10 cycles
 SCF Done:  E(RHF) =  -92.8257305883     A.U. after   12 cycles
 SCF Done:  E(RHF) =  -92.8281195993     A.U. after   12 cycles
 SCF Done:  E(RHF) =  -92.8307706056     A.U. after   11 cycles
 SCF Done:  E(RHF) =  -92.8335419092     A.U. after   11 cycles
 SCF Done:  E(RHF) =  -92.8363009910     A.U. after   11 cycles
 SCF Done:  E(RHF) =  -92.8389508509     A.U. after   11 cycles
 SCF Done:  E(RHF) =  -92.8213027795     A.U. after   14 cycles
 SCF Done:  E(RHF) =  -92.8222428165     A.U. after   12 cycles
 SCF Done:  E(RHF) =  -92.8237816616     A.U. after   12 cycles
 SCF Done:  E(RHF) =  -92.8258743846     A.U. after   12 cycles
 SCF Done:  E(RHF) =  -92.8284666717     A.U. after   12 cycles
 SCF Done:  E(RHF) =  -92.8314962478     A.U. after   12 cycles
 SCF Done:  E(RHF) =  -92.8348962492     A.U. after   12 cycles
 SCF Done:  E(RHF) =  -92.8385976939     A.U. after   12 cycles
 SCF Done:  E(RHF) =  -92.8425316601     A.U. after   12 cycles
 SCF Done:  E(RHF) =  -92.8466311508     A.U. after   11 cycles

                          Input orientation:
 ---------------------------------------------------------------------
 Center     Atomic      Atomic             Coordinates (Angstroms)
 Number     Number       Type             X           Y           Z
 ---------------------------------------------------------------------
      1          7           0       -0.078656    0.000000   -0.561639
      2          6           0        0.004264    0.000000    0.579974
      3          1           0        1.042129    0.000000    0.900067
 ---------------------------------------------------------------------

 Alpha  occ. eigenvalues --  -15.61894 -11.27533  -1.27081  -0.75794  -0.59725
 Alpha  occ. eigenvalues --   -0.51608  -0.49458
 Alpha virt. eigenvalues --    0.08359   0.17851   0.18313   0.35613   0.53270
 Alpha virt. eigenvalues --    0.58094   0.59387   0.72046   0.79376   0.88495
 Alpha virt. eigenvalues --    0.88619   1.06662   1.28053   1.30592   1.44477

 Mulliken charges:
               1
     1  N   -0.181605
     2  C   -0.038873
     3  H    0.220478
 Sum of Mulliken charges =   0.00000

 Dipole moment (field-independent basis, Debye):
    X=              1.5391    Y=              0.0000    Z=              1.5432  Tot=              2.1795
 Quadrupole moment (field-independent basis, Debye-Ang):
   XX=            -10.0428   YY=            -11.8834   ZZ=            -12.4089
   XY=              0.0000   XZ=              1.0972   YZ=              0.0000

  Exact polarizability:   0.000   0.000   0.000   0.000   0.000   0.000
 Approx polarizability:  10.327   0.000   8.353  -0.213   0.000  22.578

 Normal termination of Gaussian 09 at Tue Sep 27 11:46:07 2016.
