 Gaussian 09, Revision D.01,
 Gaussian 09:  ES64L-G09RevD.01 24-Apr-2013

 -------------------------------------------
 # opt=(modredundant,tight) RHF/6-311g** gfp
 -------------------------------------------

 -------
 HNC-HCN
 -------
 Symbolic Z-matrix:
 Charge =  0 Multiplicity = 1

 SCF Done:  E(RHF) =  -92.5971801058     A.U. after   12 cycles
 SCF Done:  E(RHF) =  -92.6625366036     A.U. after   11 cycles
 SCF Done:  E(RHF) =  -92.7427656272     A.U. after   12 cycles
 SCF Done:  E(RHF) =  -92.7957659389     A.U. after   12 cycles
 SCF Done:  E(RHF) =  -92.8787238211     A.U. after   11 cycles
 SCF Done:  E(RHF) =  -92.6206010431     A.U. after   10 cycles
 SCF Done:  E(RHF) =  -92.8681083076     A.U. after   10 cycles
 SCF Done:  E(RHF) =  -92.8858405459     A.U. after    9 cycles
 SCF Done:  E(RHF) =  -92.8990678646     A.U. after   10 cycles
 SCF Done:  E(RHF) =  -92.8999403786     A.U. after    9 cycles
 SCF Done:  E(RHF) =  -92.8999548479     A.U. after    8 cycles
 SCF Done:  E(RHF) =  -92.8999563462     A.U. after    7 cycles
 SCF Done:  E(RHF) =  -92.8999563489     A.U. after    6 cycles
 Optimization completed.
    -- Stationary point found.

                         Standard orientation:
 ---------------------------------------------------------------------
 Center     Atomic      Atomic             Coordinates (Angstroms)
 Number     Number       Type             X           Y           Z
 ---------------------------------------------------------------------
      1          7           0        0.000000    0.000000    0.638830
      2          6           0        0.000000    0.000000   -0.487718
      3          1           0        0.000000    0.000000   -1.545502
 ---------------------------------------------------------------------

 The electronic state is 1-SG.
 Alpha  occ. eigenvalues --  -15.58765 -11.27973  -1.25025  -0.80976  -0.57906
 Alpha  occ. eigenvalues --   -0.50344  -0.50344
 Alpha virt. eigenvalues --    0.15204   0.18983   0.18983   0.30006   0.57338
 Alpha virt. eigenvalues --    0.57338   0.59200   0.74787   0.79037   0.90585
 Alpha virt. eigenvalues --    0.90585   1.23471   1.37542   1.40928   1.40928

 Mulliken charges:
               1
     1  N   -0.300598
     2  C    0.102179
     3  H    0.198419
 Sum of Mulliken charges =   0.00000

 Dipole moment (field-independent basis, Debye):
    X=              0.0000    Y=              0.0000    Z=             -3.2052  Tot=              3.2052
 Quadrupole moment (field-independent basis, Debye-Ang):
   XX=            -11.6748   YY=            -11.6748   ZZ=             -9.6807
   XY=              0.0000   XZ=              0.0000   YZ=              0.0000

 Normal termination of Gaussian 09 at Mon Sep 26 18:22:44 2016.
