 Gaussian 09, Revision D.01,
 Gaussian 09:  ES64L-G09RevD.01 24-Apr-2013

 ------------------------------------------------
 # opt freq mp2(full)/6-311+g** geom=connectivity
 ------------------------------------------------

 -------------------
 Title Card Required
 -------------------
 Symbolic Z-matrix:
 Charge =  0 Multiplicity = 1

 SCF Done:  E(RHF) =  -230.753932392     A.U. after   10 cycles
 E2 =    -0.9426010073D+00 EUMP2 =    -0.23169653339904D+03
 SCF Done:  E(RHF) =  -230.755334828     A.U. after   11 cycles
 E2 =    -0.9419523312D+00 EUMP2 =    -0.23169728715890D+03
 Optimization completed.
    -- Stationary point found.
 Normal termination of Gaussian 09 at Sun Oct  9 16:26:43 2016.

 ----------------------------------------------------------------------
 #N Geom=AllCheck Guess=TCheck SCRF=Check GenChk RMP2-Full/6-311+G(d,p)
  Freq
 ----------------------------------------------------------------------

 Structure from the checkpoint file:  "Benzenemp2.chk"
 -------------------
 Title Card Required
 -------------------
 Charge =  0 Multiplicity = 1

                         Standard orientation:
 ---------------------------------------------------------------------
 Center     Atomic      Atomic             Coordinates (Angstroms)
 Number     Number       Type             X           Y           Z
 ---------------------------------------------------------------------
      1          6           0       -1.360816   -0.324924    0.000068
      2          6           0       -0.398927   -1.340948   -0.000086
      3          6           0        0.961783   -1.016026    0.000086
      4          6           0        1.360795    0.325014   -0.000064
      5          6           0        0.399013    1.340921    0.000051
      6          6           0       -0.961848    1.015966   -0.000041
      7          1           0       -2.416934   -0.577219   -0.000032
      8          1           0       -0.708713   -2.381662    0.000005
      9          1           0        1.708377   -1.804456   -0.000016
     10          1           0        2.416971    0.577036   -0.000001
     11          1           0        0.708550    2.381701   -0.000041
     12          1           0       -1.708253    1.804586   -0.000004
 ---------------------------------------------------------------------

 SCF Done:  E(RHF) =  -230.755334828     A.U. after    1 cycles
 E2 =    -0.9419523316D+00 EUMP2 =    -0.23169728715930D+03
 E2 =    -0.9419523316D+00 EUMP2 =    -0.23169728715929D+03

 The electronic state is 1-A.
 Alpha  occ. eigenvalues --  -11.24074 -11.24018 -11.24018 -11.23898 -11.23898
 Alpha  occ. eigenvalues --  -11.23839  -1.14959  -1.01499  -1.01499  -0.82448
 Alpha  occ. eigenvalues --   -0.82447  -0.70913  -0.64521  -0.61919  -0.58892
 Alpha  occ. eigenvalues --   -0.58891  -0.50027  -0.49612  -0.49610  -0.33640
 Alpha  occ. eigenvalues --   -0.33639
 Alpha virt. eigenvalues --    0.07028   0.07923   0.07923   0.09775   0.09775
 Alpha virt. eigenvalues --    0.10828   0.10828   0.12514   0.12959   0.15269
 Alpha virt. eigenvalues --    0.15269   0.16272   0.16311   0.19868   0.19869

 Mulliken charges:
               1
     1  C   -0.136877
     2  C   -0.136870
     3  C   -0.136863
     4  C   -0.136874
     5  C   -0.136871
     6  C   -0.136869
     7  H    0.136872
     8  H    0.136870
     9  H    0.136870
    10  H    0.136871
    11  H    0.136869
    12  H    0.136871
 Sum of Mulliken charges =   0.00000

 Dipole moment (field-independent basis, Debye):
    X=              0.0000    Y=              0.0000    Z=             -0.0001  Tot=              0.0001
 Quadrupole moment (field-independent basis, Debye-Ang):
   XX=            -31.9055   YY=            -31.9067   ZZ=            -41.4435
   XY=             -0.0002   XZ=              0.0000   YZ=             -0.0001

  Exact polarizability:  77.454   0.000  77.452   0.000   0.000  41.306
 Approx polarizability:  73.680   0.000  73.678   0.000   0.000  43.759

 ******    1 imaginary frequencies (negative Signs) ******

                      1                      2                      3
                      A                      A                      A
 Frequencies --   -411.2552               369.6936               369.7228
 Red. masses --     11.4095                 3.3767                 3.3763
 Frc consts  --      1.1369                 0.2719                 0.2719
 IR Inten    --      0.0000                 0.0000                 0.0000

                      4                      5                      6
                      A                      A                      A
 Frequencies --    609.7329               609.7401               668.6469
 Red. masses --      6.0022                 6.0023                 1.0848
 Frc consts  --      1.3147                 1.3148                 0.2858
 IR Inten    --      0.0000                 0.0000               129.6815

                      7                      8                      9
                      A                      A                      A
 Frequencies --    831.9884               832.0173               871.7746
 Red. masses --      1.2471                 1.2471                 1.0122
 Frc consts  --      0.5086                 0.5086                 0.4532
 IR Inten    --      0.0000                 0.0000                 0.0000

                     10                     11                     12
                      A                      A                      A
 Frequencies --    892.4823               892.5096              1006.4096
 Red. masses --      1.2831                 1.2830                 6.5441
 Frc consts  --      0.6021                 0.6021                 3.9053
 IR Inten    --      0.0000                 0.0000                 0.0000

                     13                     14                     15
                      A                      A                      A
 Frequencies --   1011.4287              1061.0344              1061.0487
 Red. masses --      5.9709                 1.6859                 1.6858
 Frc consts  --      3.5988                 1.1182                 1.1182
 IR Inten    --      0.0000                 5.6458                 5.6456

                     16                     17                     18
                      A                      A                      A
 Frequencies --   1172.3090              1198.2592              1198.2844
 Red. masses --      1.0308                 1.1257                 1.1257
 Frc consts  --      0.8347                 0.9523                 0.9523
 IR Inten    --      0.0000                 0.0000                 0.0000

                     19                     20                     21
                      A                      A                      A
 Frequencies --   1367.9536              1451.3627              1505.9955
 Red. masses --      1.2471                 9.4818                 2.0320
 Frc consts  --      1.3750                11.7677                 2.7153
 IR Inten    --      0.0000                 0.0000                 6.7936

                     22                     23                     24
                      A                      A                      A
 Frequencies --   1506.0070              1640.1774              1640.2443
 Red. masses --      2.0322                 5.6389                 5.6393
 Frc consts  --      2.7156                 8.9378                 8.9390
 IR Inten    --      6.7939                 0.0000                 0.0000

                     25                     26                     27
                      A                      A                      A
 Frequencies --   3206.7572              3217.1313              3217.1751
 Red. masses --      1.0837                 1.0883                 1.0883
 Frc consts  --      6.5659                 6.6365                 6.6367
 IR Inten    --      0.0000                 0.0001                 0.0001

                     28                     29                     30
                      A                      A                      A
 Frequencies --   3232.6908              3232.7320              3242.3032
 Red. masses --      1.0964                 1.0964                 1.1012
 Frc consts  --      6.7505                 6.7506                 6.8207
 IR Inten    --     28.0371                28.0242                 0.0003

 - Thermochemistry -
 -------------------
 Temperature   298.150 Kelvin.  Pressure   1.00000 Atm.
 Atom     1 has atomic number  6 and mass  12.00000

 Molecular mass:    78.04695 amu.
 Principal axes and moments of inertia in atomic units:
                           1         2         3
     Eigenvalues --   318.29435 318.30561 636.59995
           X            0.99915  -0.04111   0.00000
           Y            0.04111   0.99915   0.00000
           Z            0.00000   0.00000   1.00000
 This molecule is an asymmetric top.
 Rotational symmetry number  1.
 Rotational temperatures (Kelvin)      0.27212     0.27211     0.13606
 Rotational constants (GHZ):           5.67004     5.66984     2.83497
    1 imaginary frequencies ignored.
 Zero-point vibrational energy     257900.6 (Joules/Mol)
                                   61.63972 (Kcal/Mol)
 Warning -- explicit consideration of   4 degrees of freedom as
           vibrations may cause significant error
 Vibrational temperatures:    531.91   531.95   877.27   877.28   962.03
          (Kelvin)           1197.04  1197.09  1254.29  1284.08  1284.12
                             1448.00  1455.22  1526.59  1526.61  1686.69
                             1724.03  1724.06  1968.18  2088.18  2166.79
                             2166.81  2359.85  2359.94  4613.80  4628.73
                             4628.79  4651.12  4651.17  4664.95

 Zero-point correction=                           0.098229 (Hartree/Particle)
 Thermal correction to Energy=                    0.102699
 Thermal correction to Enthalpy=                  0.103643
 Thermal correction to Gibbs Free Energy=         0.070688
 Sum of electronic and zero-point Energies=           -231.599058
 Sum of electronic and thermal Energies=              -231.594588
 Sum of electronic and thermal Enthalpies=            -231.593644
 Sum of electronic and thermal Free Energies=         -231.626599

                     E (Thermal)             CV                S
                      KCal/Mol        Cal/Mol-Kelvin    Cal/Mol-Kelvin
 Total                   64.444             17.148             69.360
 Electronic               0.000              0.000              0.000
 Translational            0.889              2.981             38.979
 Rotational               0.889              2.981             25.670
 Vibrational             62.667             11.187              4.711
 Vibration     1          0.742              1.534              1.081
 Vibration     2          0.742              1.534              1.081
 Vibration     3          0.969              1.011              0.433
 Vibration     4          0.969              1.011              0.433

 Optimization completed.
    -- Stationary point found.
 Normal termination of Gaussian 09 at Sun Oct  9 16:39:16 2016.
