 Gaussian 09, Revision D.01,
 Gaussian 09:  ES64L-G09RevD.01 24-Apr-2013

 --------------------------------------------
 # opt freq b3lyp/6-311+g** geom=connectivity
 --------------------------------------------

 -------------------
 Title Card Required
 -------------------
 Symbolic Z-matrix:
 Charge =  0 Multiplicity = 1

 SCF Done:  E(RB3LYP) =  -232.310370076     A.U. after   10 cycles
 SCF Done:  E(RB3LYP) =  -232.311271124     A.U. after    8 cycles
 Optimization completed.
    -- Stationary point found.
 Normal termination of Gaussian 09 at Sun Oct  9 16:21:52 2016.

 ----------------------------------------------------------------------
 #N Geom=AllCheck Guess=TCheck SCRF=Check GenChk RB3LYP/6-311+G(d,p) Fr
 eq
 ----------------------------------------------------------------------

 Structure from the checkpoint file:  "Benzeneb3lyp.chk"
 -------------------
 Title Card Required
 -------------------
 Charge =  0 Multiplicity = 1

                         Standard orientation:
 ---------------------------------------------------------------------
 Center     Atomic      Atomic             Coordinates (Angstroms)
 Number     Number       Type             X           Y           Z
 ---------------------------------------------------------------------
      1          6           0       -0.994800   -0.976959    0.000002
      2          6           0        0.348823   -1.349854    0.000062
      3          6           0        1.343532   -0.373015   -0.000055
      4          6           0        0.994715    0.977048    0.000007
      5          6           0       -0.348706    1.349883    0.000057
      6          6           0       -1.343565    0.372900   -0.000051
      7          1           0       -1.768224   -1.736869   -0.000062
      8          1           0        0.619868   -2.399730    0.000080
      9          1           0        2.388303   -0.662979   -0.000121
     10          1           0        1.768328    1.736757    0.000020
     11          1           0       -0.620001    2.399689    0.000000
     12          1           0       -2.388271    0.663120   -0.000038
 ---------------------------------------------------------------------

 SCF Done:  E(RB3LYP) =  -232.311271124     A.U. after    1 cycles

 The electronic state is 1-A.
 Alpha  occ. eigenvalues --  -10.17908 -10.17884 -10.17883 -10.17828 -10.17828
 Alpha  occ. eigenvalues --  -10.17801  -0.86008  -0.75167  -0.75165  -0.60837
 Alpha  occ. eigenvalues --   -0.60835  -0.52989  -0.46652  -0.45336  -0.42805
 Alpha  occ. eigenvalues --   -0.42801  -0.37317  -0.35094  -0.35090  -0.26014
 Alpha  occ. eigenvalues --   -0.26013
 Alpha virt. eigenvalues --   -0.01756  -0.01756   0.00459   0.02349   0.02351
 Alpha virt. eigenvalues --    0.04536   0.04537   0.06257   0.07135   0.07827
 Alpha virt. eigenvalues --    0.08957   0.08969   0.09881   0.12466   0.13999

 Mulliken charges:
               1
     1  C   -0.125859
     2  C   -0.125971
     3  C   -0.126045
     4  C   -0.125859
     5  C   -0.125972
     6  C   -0.126049
     7  H    0.125950
     8  H    0.125960
     9  H    0.125968
    10  H    0.125949
    11  H    0.125960
    12  H    0.125968
 Sum of Mulliken charges =   0.00000

 Dipole moment (field-independent basis, Debye):
    X=              0.0000    Y=              0.0000    Z=             -0.0001  Tot=              0.0001
 Quadrupole moment (field-independent basis, Debye-Ang):
   XX=            -32.1399   YY=            -32.1417   ZZ=            -40.3279
   XY=             -0.0001   XZ=              0.0000   YZ=              0.0000

  Exact polarizability:  78.456   0.002  78.452   0.000   0.000  41.563
 Approx polarizability: 127.403   0.000 127.391   0.000   0.000  60.089

                      1                      2                      3
                      A                      A                      A
 Frequencies --    410.3124               411.2578               622.4535
 Red. masses --      2.8553                 2.8597                 6.0860
 Frc consts  --      0.2832                 0.2850                 1.3893
 IR Inten    --      0.0000                 0.0003                 0.0000

                      4                      5                      6
                      A                      A                      A
 Frequencies --    622.7661               687.2760               718.9409
 Red. masses --      6.0843                 1.0848                 3.5613
 Frc consts  --      1.3903                 0.3019                 1.0845
 IR Inten    --      0.0000               125.2214                 0.0000

                      7                      8                      9
                      A                      A                      A
 Frequencies --    863.1566               863.2405               987.6634
 Red. masses --      1.2475                 1.2475                 1.3787
 Frc consts  --      0.5476                 0.5477                 0.7924
 IR Inten    --      0.0000                 0.0000                 0.0000

                     10                     11                     12
                      A                      A                      A
 Frequencies --    988.0500              1011.5808              1017.8875
 Red. masses --      1.3776                 6.0265                 1.2582
 Frc consts  --      0.7924                 3.6334                 0.7681
 IR Inten    --      0.0005                 0.0000                 0.0000

                     13                     14                     15
                      A                      A                      A
 Frequencies --   1022.5266              1059.2942              1059.8942
 Red. masses --      6.5350                 1.7051                 1.7022
 Frc consts  --      4.0258                 1.1273                 1.1266
 IR Inten    --      0.0000                 6.4215                 6.4535

                     16                     17                     18
                      A                      A                      A
 Frequencies --   1174.8041              1197.4128              1197.4457
 Red. masses --      1.0954                 1.1362                 1.1365
 Frc consts  --      0.8908                 0.9598                 0.9601
 IR Inten    --      0.0000                 0.0000                 0.0000

                     19                     20                     21
                      A                      A                      A
 Frequencies --   1337.5750              1380.9906              1510.5309
 Red. masses --      6.1466                 1.2475                 2.0096
 Frc consts  --      6.4792                 1.4018                 2.7016
 IR Inten    --      0.0001                 0.0000                 7.1433

                     22                     23                     24
                      A                      A                      A
 Frequencies --   1511.1679              1634.5192              1634.7390
 Red. masses --      2.0136                 5.3339                 5.3418
 Frc consts  --      2.7093                 8.3961                 8.4107
 IR Inten    --      7.1097                 0.0000                 0.0000

                     25                     26                     27
                      A                      A                      A
 Frequencies --   3157.1736              3166.4748              3167.1580
 Red. masses --      1.0840                 1.0876                 1.0876
 Frc consts  --      6.3659                 6.4251                 6.4280
 IR Inten    --      0.0151                 0.0001                 0.0000

                     28                     29                     30
                      A                      A                      A
 Frequencies --   3182.0448              3182.7923              3192.5992
 Red. masses --      1.0950                 1.0949                 1.0993
 Frc consts  --      6.5322                 6.5351                 6.6019
 IR Inten    --     37.6226                37.5900                 0.0002

 - Thermochemistry -
 -------------------
 Temperature   298.150 Kelvin.  Pressure   1.00000 Atm.
 Atom     1 has atomic number  6 and mass  12.00000

 Molecular mass:    78.04695 amu.
 Principal axes and moments of inertia in atomic units:
                           1         2         3
     Eigenvalues --   316.22644 316.27316 632.49959
           X            0.99997  -0.00771   0.00000
           Y            0.00771   0.99997   0.00000
           Z            0.00000   0.00000   1.00000
 This molecule is an asymmetric top.
 Rotational symmetry number  1.
 Rotational temperatures (Kelvin)      0.27390     0.27386     0.13694
 Rotational constants (GHZ):           5.70712     5.70627     2.85335
 Zero-point vibrational energy     263021.3 (Joules/Mol)
                                   62.86360 (Kcal/Mol)
 Warning -- explicit consideration of   2 degrees of freedom as
           vibrations may cause significant error
 Vibrational temperatures:    590.35   591.71   895.57   896.02   988.84
          (Kelvin)           1034.39  1241.89  1242.01  1421.03  1421.58
                             1455.44  1464.51  1471.19  1524.09  1524.95
                             1690.28  1722.81  1722.86  1924.47  1986.93
                             2173.31  2174.23  2351.71  2352.02  4542.46
                             4555.85  4556.83  4578.25  4579.32  4593.43

 Zero-point correction=                           0.100180 (Hartree/Particle)
 Thermal correction to Energy=                    0.104577
 Thermal correction to Enthalpy=                  0.105521
 Thermal correction to Gibbs Free Energy=         0.072716
 Sum of electronic and zero-point Energies=           -232.211092
 Sum of electronic and thermal Energies=              -232.206694
 Sum of electronic and thermal Enthalpies=            -232.205750
 Sum of electronic and thermal Free Energies=         -232.238555

                     E (Thermal)             CV                S
                      KCal/Mol        Cal/Mol-Kelvin    Cal/Mol-Kelvin
 Total                   65.623             17.182             69.045
 Electronic               0.000              0.000              0.000
 Translational            0.889              2.981             38.979
 Rotational               0.889              2.981             25.651
 Vibrational             63.846             11.220              4.415
 Vibration     1          0.774              1.448              0.926
 Vibration     2          0.775              1.446              0.922

 Optimization completed.
    -- Stationary point found.
 Normal termination of Gaussian 09 at Sun Oct  9 16:25:02 2016.
