 Gaussian 09, Revision D.01,
 Gaussian 09:  ES64L-G09RevD.01 24-Apr-2013

 ------------------------------------------
 # opt freq rhf/6-311+g** geom=connectivity
 ------------------------------------------

 -------------------
 Title Card Required
 -------------------
 Symbolic Z-matrix:
 Charge =  0 Multiplicity = 1

 SCF Done:  E(RHF) =  -230.753932392     A.U. after   10 cycles
 SCF Done:  E(RHF) =  -230.756730989     A.U. after   11 cycles
 SCF Done:  E(RHF) =  -230.756773631     A.U. after    9 cycles
 Optimization completed.
    -- Stationary point found.
 Normal termination of Gaussian 09 at Sun Oct  9 16:39:59 2016.

 ---------------------------------------------------------------------
 #N Geom=AllCheck Guess=TCheck SCRF=Check GenChk RHF/6-311+G(d,p) Freq
 ---------------------------------------------------------------------

 Structure from the checkpoint file:  "Benzenerhf.chk"
 -------------------
 Title Card Required
 -------------------
 Charge =  0 Multiplicity = 1

                         Standard orientation:
 ---------------------------------------------------------------------
 Center     Atomic      Atomic             Coordinates (Angstroms)
 Number     Number       Type             X           Y           Z
 ---------------------------------------------------------------------
      1          6           0       -0.396672    1.328391    0.000000
      2          6           0       -1.348779    0.320590    0.000032
      3          6           0       -0.952089   -1.007720   -0.000010
      4          6           0        0.396750   -1.328367    0.000008
      5          6           0        1.348760   -0.320670    0.000011
      6          6           0        0.952030    1.007776   -0.000020
      7          1           0       -0.704475    2.358889   -0.000007
      8          1           0       -2.395096    0.569380   -0.000033
      9          1           0       -1.690620   -1.789542   -0.000060
     10          1           0        0.704441   -2.358900   -0.000031
     11          1           0        2.395104   -0.569347    0.000034
     12          1           0        1.690647    1.789516   -0.000021
 ---------------------------------------------------------------------

 SCF Done:  E(RHF) =  -230.756773631     A.U. after    1 cycles

 The electronic state is 1-A.
 Alpha  occ. eigenvalues --  -11.23501 -11.23441 -11.23441 -11.23313 -11.23313
 Alpha  occ. eigenvalues --  -11.23250  -1.15716  -1.01955  -1.01955  -0.82783
 Alpha  occ. eigenvalues --   -0.82783  -0.71531  -0.64561  -0.62373  -0.59191
 Alpha  occ. eigenvalues --   -0.59190  -0.50515  -0.49695  -0.49695  -0.33827
 Alpha  occ. eigenvalues --   -0.33827
 Alpha virt. eigenvalues --    0.07004   0.07925   0.07925   0.09809   0.09809
 Alpha virt. eigenvalues --    0.11087   0.11087   0.12556   0.12893   0.15244
 Alpha virt. eigenvalues --    0.15244   0.16294   0.16314   0.19939   0.19939

 Mulliken charges:
               1
     1  C   -0.133093
     2  C   -0.133095
     3  C   -0.133090
     4  C   -0.133093
     5  C   -0.133094
     6  C   -0.133092
     7  H    0.133093
     8  H    0.133093
     9  H    0.133093
    10  H    0.133093
    11  H    0.133093
    12  H    0.133093
 Sum of Mulliken charges =   0.00000

 Dipole moment (field-independent basis, Debye):
    X=              0.0000    Y=              0.0000    Z=             -0.0001  Tot=              0.0001
 Quadrupole moment (field-independent basis, Debye-Ang):
   XX=            -31.9350   YY=            -31.9351   ZZ=            -41.1262
   XY=              0.0000   XZ=              0.0003   YZ=              0.0001

  Exact polarizability:  74.393   0.000  74.393   0.000   0.000  41.541
 Approx polarizability:  71.863   0.000  71.863   0.000   0.000  43.152

                      1                      2                      3
                      A                      A                      A
 Frequencies --    448.5147               448.5198               661.9101
 Red. masses --      2.8571                 2.8570                 6.0776
 Frc consts  --      0.3386                 0.3386                 1.5689
 IR Inten    --      0.0000                 0.0000                 0.0000
 Raman Activ --      0.0000                 0.0000                 5.2816

                      4                      5                      6
                      A                      A                      A
 Frequencies --    661.9128               754.1626               768.0539
 Red. masses --      6.0777                 1.0848                 3.3021
 Frc consts  --      1.5689                 0.3635                 1.1477
 IR Inten    --      0.0000               149.6615                 0.0000
 Raman Activ --      5.2816                 0.0000                 0.0000

                      7                      8                      9
                      A                      A                      A
 Frequencies --    952.7575               952.7624              1069.1919
 Red. masses --      1.2470                 1.2470                 5.9908
 Frc consts  --      0.6669                 0.6669                 4.0351
 IR Inten    --      0.0000                 0.0000                 0.0000
 Raman Activ --      2.1797                 2.1795                86.3406

                     10                     11                     12
                      A                      A                      A
 Frequencies --   1090.1852              1099.5149              1099.5191
 Red. masses --      6.5077                 1.3783                 1.3783
 Frc consts  --      4.5570                 0.9817                 0.9817
 IR Inten    --      0.0000                 0.0000                 0.0000
 Raman Activ --      0.0000                 0.0000                 0.0000

                     13                     14                     15
                      A                      A                      A
 Frequencies --   1122.4759              1127.4880              1127.4970
 Red. masses --      1.2941                 1.7375                 1.7375
 Frc consts  --      0.9607                 1.3014                 1.3014
 IR Inten    --      0.0000                 5.2658                 5.2659
 Raman Activ --      0.0000                 0.0000                 0.0000

                     16                     17                     18
                      A                      A                      A
 Frequencies --   1179.1970              1279.2165              1279.2201
 Red. masses --      2.2805                 1.1501                 1.1500
 Frc consts  --      1.8683                 1.1088                 1.1088
 IR Inten    --      0.0000                 0.0000                 0.0000
 Raman Activ --      0.0007                 3.8920                 3.8918

                     19                     20                     21
                      A                      A                      A
 Frequencies --   1337.1821              1490.8425              1628.4080
 Red. masses --      1.5697                 1.2470                 1.9602
 Frc consts  --      1.6537                 1.6330                 3.0626
 IR Inten    --      0.0000                 0.0000                 9.8973
 Raman Activ --      0.0001                 0.0000                 0.0000

                     22                     23                     24
                      A                      A                      A
 Frequencies --   1628.4127              1772.9019              1772.9152
 Red. masses --      1.9603                 5.0141                 5.0142
 Frc consts  --      3.0627                 9.2857                 9.2861
 IR Inten    --      9.8970                 0.0000                 0.0000
 Raman Activ --      0.0000                16.0886                16.0907

                     25                     26                     27
                      A                      A                      A
 Frequencies --   3312.7611              3324.1245              3324.1338
 Red. masses --      1.0847                 1.0898                 1.0898
 Frc consts  --      7.0136                 7.0947                 7.0947
 IR Inten    --      0.0000                 0.0000                 0.0000
 Raman Activ --      0.0000               119.1212               119.1192

                     28                     29                     30
                      A                      A                      A
 Frequencies --   3342.3089              3342.3175              3353.4638
 Red. masses --      1.0968                 1.0968                 1.1005
 Frc consts  --      7.2192                 7.2192                 7.2919
 IR Inten    --     45.2908                45.2908                 0.0000
 Raman Activ --      0.0000                 0.0000               365.6577

 - Thermochemistry -
 -------------------
 Temperature   298.150 Kelvin.  Pressure   1.00000 Atm.
 Atom     1 has atomic number  6 and mass  12.00000

 Molecular mass:    78.04695 amu.
 Principal axes and moments of inertia in atomic units:
                           1         2         3
     Eigenvalues --   312.52182 312.52429 625.04611
           X            0.99923   0.03915   0.00000
           Y           -0.03915   0.99923   0.00000
           Z            0.00000   0.00000   1.00000
 This molecule is an asymmetric top.
 Rotational symmetry number  1.
 Rotational temperatures (Kelvin)      0.27714     0.27714     0.13857
 Rotational constants (GHZ):           5.77477     5.77472     2.88737
 Zero-point vibrational energy     279638.3 (Joules/Mol)
                                   66.83515 (Kcal/Mol)
 Warning -- explicit consideration of   2 degrees of freedom as
           vibrations may cause significant error
 Vibrational temperatures:    645.31   645.32   952.34   952.34  1085.07
          (Kelvin)           1105.06  1370.80  1370.81  1538.33  1568.53
                             1581.95  1581.96  1614.99  1622.20  1622.21
                             1696.60  1840.50  1840.51  1923.90  2144.99
                             2342.91  2342.92  2550.81  2550.83  4766.32
                             4782.67  4782.68  4808.83  4808.84  4824.88

 Zero-point correction=                           0.106509 (Hartree/Particle)
 Thermal correction to Energy=                    0.110636
 Thermal correction to Enthalpy=                  0.111580
 Thermal correction to Gibbs Free Energy=         0.079175
 Sum of electronic and zero-point Energies=           -230.650265
 Sum of electronic and thermal Energies=              -230.646138
 Sum of electronic and thermal Enthalpies=            -230.645193
 Sum of electronic and thermal Free Energies=         -230.677599

                     E (Thermal)             CV                S
                      KCal/Mol        Cal/Mol-Kelvin    Cal/Mol-Kelvin
 Total                   69.425             15.623             68.203
 Electronic               0.000              0.000              0.000
 Translational            0.889              2.981             38.979
 Rotational               0.889              2.981             25.615
 Vibrational             67.648              9.662              3.609
 Vibration     1          0.808              1.364              0.800
 Vibration     2          0.808              1.364              0.800

 Optimization completed.
    -- Stationary point found.
 Normal termination of Gaussian 09 at Sun Oct  9 16:41:11 2016.
