 Gaussian 09, Revision D.01,
 Gaussian 09:  ES64L-G09RevD.01 24-Apr-2013

 ------------------------------------------------
 # opt freq mp2(full)/6-311+g** geom=connectivity
 ------------------------------------------------

 -------------------
 Title Card Required
 -------------------
 Symbolic Z-matrix:
 Charge =  0 Multiplicity = 1

 SCF Done:  E(RHF) =  -76.0521730766     A.U. after   11 cycles
 E2 =    -0.2407225746D+00 EUMP2 =    -0.76292895651238D+02
 SCF Done:  E(RHF) =  -76.0527508644     A.U. after    9 cycles
 E2 =    -0.2409547229D+00 EUMP2 =    -0.76293705587263D+02
 SCF Done:  E(RHF) =  -76.0525410659     A.U. after    8 cycles
 E2 =    -0.2411823792D+00 EUMP2 =    -0.76293723445115D+02
 Optimization completed.
    -- Stationary point found.
 Normal termination of Gaussian 09 at Sun Oct  9 16:41:27 2016.

 ----------------------------------------------------------------------
 #N Geom=AllCheck Guess=TCheck SCRF=Check GenChk RMP2-Full/6-311+G(d,p)
  Freq
 ----------------------------------------------------------------------

 Structure from the checkpoint file:  "H20mp2.chk"
 -------------------
 Title Card Required
 -------------------
 Charge =  0 Multiplicity = 1

                         Standard orientation:
 ---------------------------------------------------------------------
 Center     Atomic      Atomic             Coordinates (Angstroms)
 Number     Number       Type             X           Y           Z
 ---------------------------------------------------------------------
      1          8           0        0.000000    0.000000    0.118646
      2          1           0        0.000000    0.753207   -0.474585
      3          1           0        0.000000   -0.753207   -0.474585
 ---------------------------------------------------------------------

 SCF Done:  E(RHF) =  -76.0525410659     A.U. after    1 cycles
 E2 =    -0.2411823794D+00 EUMP2 =    -0.76293723445348D+02
 E2 =    -0.2411823794D+00 EUMP2 =    -0.76293723445348D+02

 The electronic state is 1-A1.
 Alpha  occ. eigenvalues --  -20.56729  -1.35549  -0.71795  -0.58596  -0.51042
 Alpha virt. eigenvalues --    0.14361   0.21284   0.24218   0.24547   0.26378
 Alpha virt. eigenvalues --    0.30462   0.66496   0.68802   1.17816   1.19260
 Alpha virt. eigenvalues --    1.24380   1.43950   1.50822   1.55656   1.70843

 Mulliken charges:
               1
     1  O   -0.512052
     2  H    0.256026
     3  H    0.256026
 Sum of Mulliken charges =   0.00000

 Dipole moment (field-independent basis, Debye):
    X=              0.0000    Y=              0.0000    Z=             -2.2562  Tot=              2.2562
 Quadrupole moment (field-independent basis, Debye-Ang):
   XX=             -7.5616   YY=             -4.2877   ZZ=             -6.2618
   XY=              0.0000   XZ=              0.0000   YZ=              0.0000

  Exact polarizability:   6.701   0.000   7.939   0.000   0.000   6.598
 Approx polarizability:   4.168   0.000   6.220   0.000   0.000   4.955

                      1                      2                      3
                     A1                     A1                     B2
 Frequencies --   1627.5885              3890.3412              4009.5794
 Red. masses --      1.0815                 1.0463                 1.0809
 Frc consts  --      1.6879                 9.3299                10.2385
 IR Inten    --     58.2838                13.6462                63.9185

 - Thermochemistry -
 -------------------
 Temperature   298.150 Kelvin.  Pressure   1.00000 Atm.
 Atom     1 has atomic number  8 and mass  15.99491

 Molecular mass:    18.01056 amu.
 Principal axes and moments of inertia in atomic units:
                           1         2         3
     Eigenvalues --     2.24965   4.08359   6.33324
           X            0.00000   0.00000   1.00000
           Y            1.00000   0.00000   0.00000
           Z            0.00000   1.00000   0.00000
 This molecule is an asymmetric top.
 Rotational symmetry number  2.
 Rotational temperatures (Kelvin)     38.50099    21.21024    13.67607
 Rotational constants (GHZ):         802.23139   441.95019   284.96348
 Zero-point vibrational energy      56987.2 (Joules/Mol)
                                   13.62026 (Kcal/Mol)
 Vibrational temperatures:   2341.73  5597.33  5768.88
          (Kelvin)

 Zero-point correction=                           0.021705 (Hartree/Particle)
 Thermal correction to Energy=                    0.024541
 Thermal correction to Enthalpy=                  0.025485
 Thermal correction to Gibbs Free Energy=         0.004067
 Sum of electronic and zero-point Energies=            -76.272018
 Sum of electronic and thermal Energies=               -76.269183
 Sum of electronic and thermal Enthalpies=             -76.268239
 Sum of electronic and thermal Free Energies=          -76.289657

                     E (Thermal)             CV                S
                      KCal/Mol        Cal/Mol-Kelvin    Cal/Mol-Kelvin
 Total                   15.400              6.009             45.078
 Electronic               0.000              0.000              0.000
 Translational            0.889              2.981             34.608
 Rotational               0.889              2.981             10.463
 Vibrational             13.622              0.048              0.007

 Optimization completed.
    -- Stationary point found.
 Normal termination of Gaussian 09 at Sun Oct  9 16:41:32 2016.
