 Gaussian 09, Revision D.01,
 Gaussian 09:  ES64L-G09RevD.01 24-Apr-2013

 --------------------------------------------
 # opt freq b3lyp/6-311+g** geom=connectivity
 --------------------------------------------

 -------------------
 Title Card Required
 -------------------
 Symbolic Z-matrix:
 Charge =  0 Multiplicity = 1

 SCF Done:  E(RB3LYP) =  -76.4580254568     A.U. after   10 cycles
 SCF Done:  E(RB3LYP) =  -76.4584507594     A.U. after    8 cycles
 SCF Done:  E(RB3LYP) =  -76.4584627159     A.U. after    6 cycles
 Optimization completed.
    -- Stationary point found.
 Normal termination of Gaussian 09 at Sun Oct  9 16:41:17 2016.

 ----------------------------------------------------------------------
 #N Geom=AllCheck Guess=TCheck SCRF=Check GenChk RB3LYP/6-311+G(d,p) Fr
 eq
 ----------------------------------------------------------------------

 Structure from the checkpoint file:  "H20b3lyp.chk"
 -------------------
 Title Card Required
 -------------------
 Charge =  0 Multiplicity = 1

                         Standard orientation:
 ---------------------------------------------------------------------
 Center     Atomic      Atomic             Coordinates (Angstroms)
 Number     Number       Type             X           Y           Z
 ---------------------------------------------------------------------
      1          8           0        0.000000    0.000000    0.117031
      2          1           0        0.000000    0.763496   -0.468125
      3          1           0        0.000000   -0.763496   -0.468125
 ---------------------------------------------------------------------

 SCF Done:  E(RB3LYP) =  -76.4584627159     A.U. after    1 cycles

 The electronic state is 1-A1.
 Alpha  occ. eigenvalues --  -19.13320  -1.02331  -0.54332  -0.39682  -0.32301
 Alpha virt. eigenvalues --    0.01912   0.09532   0.15126   0.15200   0.17637
 Alpha virt. eigenvalues --    0.20475   0.47334   0.48818   0.93841   0.94916
 Alpha virt. eigenvalues --    0.99292   1.20700   1.25025   1.30897   1.45958

 Mulliken charges:
               1
     1  O   -0.505742
     2  H    0.252871
     3  H    0.252871
 Sum of Mulliken charges =   0.00000

 Dipole moment (field-independent basis, Debye):
    X=              0.0000    Y=              0.0000    Z=             -2.1608  Tot=              2.1608
 Quadrupole moment (field-independent basis, Debye-Ang):
   XX=             -7.8051   YY=             -4.4383   ZZ=             -6.5416
   XY=              0.0000   XZ=              0.0000   YZ=              0.0000

  Exact polarizability:   6.804   0.000   8.269   0.000   0.000   6.793
 Approx polarizability:   6.942   0.000  10.085   0.000   0.000   7.909

                      1                      2                      3
                     A1                     A1                     B2
 Frequencies --   1602.4895              3818.5697              3923.8762
 Red. masses --      1.0829                 1.0449                 1.0824
 Frc consts  --      1.6385                 8.9772                 9.8192
 IR Inten    --     67.1615                 9.7673                57.3948

 - Thermochemistry -
 -------------------
 Temperature   298.150 Kelvin.  Pressure   1.00000 Atm.
 Atom     1 has atomic number  8 and mass  15.99491

 Molecular mass:    18.01056 amu.
 Principal axes and moments of inertia in atomic units:
                           1         2         3
     Eigenvalues --     2.18882   4.19591   6.38473
           X            0.00000   0.00000   1.00000
           Y            1.00000   0.00000   0.00000
           Z            0.00000   1.00000   0.00000
 This molecule is an asymmetric top.
 Rotational symmetry number  2.
 Rotational temperatures (Kelvin)     39.57093    20.64244    13.56577
 Rotational constants (GHZ):         824.52544   430.11913   282.66505
 Zero-point vibrational energy      55895.1 (Joules/Mol)
                                   13.35926 (Kcal/Mol)
 Vibrational temperatures:   2305.62  5494.06  5645.58
          (Kelvin)

 Zero-point correction=                           0.021289 (Hartree/Particle)
 Thermal correction to Energy=                    0.024125
 Thermal correction to Enthalpy=                  0.025069
 Thermal correction to Gibbs Free Energy=         0.003647
 Sum of electronic and zero-point Energies=            -76.437173
 Sum of electronic and thermal Energies=               -76.434338
 Sum of electronic and thermal Enthalpies=             -76.433393
 Sum of electronic and thermal Free Energies=          -76.454816

                     E (Thermal)             CV                S
                      KCal/Mol        Cal/Mol-Kelvin    Cal/Mol-Kelvin
 Total                   15.139              6.014             45.087
 Electronic               0.000              0.000              0.000
 Translational            0.889              2.981             34.608
 Rotational               0.889              2.981             10.471
 Vibrational             13.361              0.052              0.008

 Optimization completed.
    -- Stationary point found.
 Normal termination of Gaussian 09 at Sun Oct  9 16:41:20 2016.
