 Gaussian 09, Revision D.01,
 Gaussian 09:  ES64L-G09RevD.01 24-Apr-2013

 ------------------------------------------
 # opt freq rhf/6-311+g** geom=connectivity
 ------------------------------------------

 -------------------
 Title Card Required
 -------------------
 Symbolic Z-matrix:
 Charge =  0 Multiplicity = 1

 SCF Done:  E(RHF) =  -76.0521730766     A.U. after   11 cycles
 SCF Done:  E(RHF) =  -76.0532787189     A.U. after    9 cycles
 SCF Done:  E(RHF) =  -76.0533051237     A.U. after    9 cycles
 Optimization completed.
    -- Stationary point found.
 Normal termination of Gaussian 09 at Sun Oct  9 16:41:37 2016.

 ---------------------------------------------------------------------
 #N Geom=AllCheck Guess=TCheck SCRF=Check GenChk RHF/6-311+G(d,p) Freq
 ---------------------------------------------------------------------

 Structure from the checkpoint file:  "H20rhf.chk"
 -------------------
 Title Card Required
 -------------------
 Charge =  0 Multiplicity = 1

                         Standard orientation:
 ---------------------------------------------------------------------
 Center     Atomic      Atomic             Coordinates (Angstroms)
 Number     Number       Type             X           Y           Z
 ---------------------------------------------------------------------
      1          8           0        0.000000    0.000000    0.113074
      2          1           0        0.000000    0.752642   -0.452295
      3          1           0        0.000000   -0.752642   -0.452295
 ---------------------------------------------------------------------

 SCF Done:  E(RHF) =  -76.0533051237     A.U. after    1 cycles

 The electronic state is 1-A1.
 Alpha  occ. eigenvalues --  -20.56300  -1.36274  -0.73280  -0.58403  -0.51109
 Alpha virt. eigenvalues --    0.14699   0.21393   0.24100   0.24532   0.26539
 Alpha virt. eigenvalues --    0.30154   0.68307   0.69928   1.17156   1.18746
 Alpha virt. eigenvalues --    1.24393   1.45326   1.50364   1.56226   1.72768

 Mulliken charges:
               1
     1  O   -0.519887
     2  H    0.259943
     3  H    0.259943
 Sum of Mulliken charges =   0.00000

 Dipole moment (field-independent basis, Debye):
    X=              0.0000    Y=              0.0000    Z=             -2.1976  Tot=              2.1976
 Quadrupole moment (field-independent basis, Debye-Ang):
   XX=             -7.5257   YY=             -4.2112   ZZ=             -6.3303
   XY=              0.0000   XZ=              0.0000   YZ=              0.0000

  Exact polarizability:   5.490   0.000   7.397   0.000   0.000   5.827
 Approx polarizability:   4.119   0.000   6.077   0.000   0.000   4.675

                      1                      2                      3
                     A1                     A1                     B2
 Frequencies --   1727.3301              4140.4750              4242.2455
 Red. masses --      1.0826                 1.0453                 1.0835
 Frc consts  --      1.9031                10.5579                11.4889
 IR Inten    --     85.7826                25.8570                88.3756
 Raman Activ --      5.8981                72.5666                34.9405

 - Thermochemistry -
 -------------------
 Temperature   298.150 Kelvin.  Pressure   1.00000 Atm.
 Atom     1 has atomic number  8 and mass  15.99491

 Molecular mass:    18.01056 amu.
 Principal axes and moments of inertia in atomic units:
                           1         2         3
     Eigenvalues --     2.04330   4.07747   6.12076
           X            0.00000   0.00000   1.00000
           Y            1.00000   0.00000   0.00000
           Z            0.00000   1.00000   0.00000
 This molecule is an asymmetric top.
 Rotational symmetry number  2.
 Rotational temperatures (Kelvin)     42.38923    21.24207    14.15082
 Rotational constants (GHZ):         883.24932   442.61352   294.85561
 Zero-point vibrational energy      60471.5 (Joules/Mol)
                                   14.45304 (Kcal/Mol)
 Vibrational temperatures:   2485.24  5957.21  6103.64
          (Kelvin)

 Zero-point correction=                           0.023032 (Hartree/Particle)
 Thermal correction to Energy=                    0.025867
 Thermal correction to Enthalpy=                  0.026811
 Thermal correction to Gibbs Free Energy=         0.005456
 Sum of electronic and zero-point Energies=            -76.030273
 Sum of electronic and thermal Energies=               -76.027438
 Sum of electronic and thermal Enthalpies=             -76.026494
 Sum of electronic and thermal Free Energies=          -76.047849

                     E (Thermal)             CV                S
                      KCal/Mol        Cal/Mol-Kelvin    Cal/Mol-Kelvin
 Total                   16.232              5.995             44.945
 Electronic               0.000              0.000              0.000
 Translational            0.889              2.981             34.608
 Rotational               0.889              2.981             10.332
 Vibrational             14.454              0.033              0.004

 Optimization completed.
    -- Stationary point found.
 Normal termination of Gaussian 09 at Sun Oct  9 16:41:41 2016.
