 Gaussian 09, Revision D.01,
 Gaussian 09:  ES64L-G09RevD.01 24-Apr-2013

 ------------------------------------------------
 # opt freq mp2(full)/6-311+g** geom=connectivity
 ------------------------------------------------

 -------------------
 Title Card Required
 -------------------
 Symbolic Z-matrix:
 Charge =  1 Multiplicity = 1

 SCF Done:  E(RHF) =  -7.23583958226     A.U. after    5 cycles
 E2 =    -0.1250914804D-01 EUMP2 =    -0.72483487303056D+01
 Optimization completed.
    -- Stationary point found.
 Normal termination of Gaussian 09 at Sun Oct  9 16:41:49 2016.

 ----------------------------------------------------------------------
 #N Geom=AllCheck Guess=TCheck SCRF=Check GenChk RMP2-Full/6-311+G(d,p)
  Freq
 ----------------------------------------------------------------------

 Structure from the checkpoint file:  "Li+mp2.chk"
 -------------------
 Title Card Required
 -------------------
 Charge =  1 Multiplicity = 1

                         Standard orientation:
 ---------------------------------------------------------------------
 Center     Atomic      Atomic             Coordinates (Angstroms)
 Number     Number       Type             X           Y           Z
 ---------------------------------------------------------------------
      1          3           0        0.000000    0.000000    0.000000
 ---------------------------------------------------------------------

 SCF Done:  E(RHF) =  -7.23583958226     A.U. after    1 cycles
 E2 =    -0.1250914804D-01 EUMP2 =    -0.72483487303047D+01
 E2 =    -0.1250914804D-01 EUMP2 =    -0.72483487303047D+01

 The electronic state is 1-A1G.
 Alpha  occ. eigenvalues --   -2.79237
 Alpha virt. eigenvalues --   -0.19616  -0.12846  -0.12846  -0.12846  -0.07358
 Alpha virt. eigenvalues --   -0.05663  -0.05663  -0.05663  -0.00543  -0.00088
 Alpha virt. eigenvalues --   -0.00088  -0.00088   0.31752   0.31752   0.31752

 Mulliken charges:
               1
     1  Li   1.000000
 Sum of Mulliken charges =   1.00000

 Dipole moment (field-independent basis, Debye):
    X=              0.0000    Y=              0.0000    Z=              0.0000  Tot=              0.0000
 Quadrupole moment (field-independent basis, Debye-Ang):
   XX=             -0.3998   YY=             -0.3998   ZZ=             -0.3998
   XY=              0.0000   XZ=              0.0000   YZ=              0.0000

  Exact polarizability:   0.142   0.000   0.142   0.000   0.000   0.142
 Approx polarizability:   0.115   0.000   0.115   0.000   0.000   0.115

 - Thermochemistry -
 -------------------
 Temperature   298.150 Kelvin.  Pressure   1.00000 Atm.
 Atom     1 has atomic number  3 and mass   7.01600
 Molecular mass:     7.01600 amu.
 Zero-point vibrational energy          0.0 (Joules/Mol)
                                    0.00000 (Kcal/Mol)
 Vibrational temperatures:
          (Kelvin)

 Zero-point correction=                           0.000000 (Hartree/Particle)
 Thermal correction to Energy=                    0.001416
 Thermal correction to Enthalpy=                  0.002360
 Thermal correction to Gibbs Free Energy=        -0.012748
 Sum of electronic and zero-point Energies=             -7.248349
 Sum of electronic and thermal Energies=                -7.246932
 Sum of electronic and thermal Enthalpies=              -7.245988
 Sum of electronic and thermal Free Energies=           -7.261097

                     E (Thermal)             CV                S
                      KCal/Mol        Cal/Mol-Kelvin    Cal/Mol-Kelvin
 Total                    0.889              2.981             31.798
 Electronic               0.000              0.000              0.000
 Translational            0.889              2.981             31.798
 Rotational               0.000              0.000              0.000
 Vibrational              0.000              0.000              0.000

 Optimization completed.
    -- Stationary point found.
 Normal termination of Gaussian 09 at Sun Oct  9 16:41:53 2016.
