 Gaussian 09, Revision D.01,
 Gaussian 09:  ES64L-G09RevD.01 24-Apr-2013

 -----------------------------
 # opt=(z-matrix) rhf/6-31g(d)
 -----------------------------

 -----------
 Ammonia c3v
 -----------
 Symbolic Z-matrix:
 Charge =  0 Multiplicity = 1

 SCF Done:  E(RHF) =  -56.1510434216     A.U. after   10 cycles
 SCF Done:  E(RHF) =  -56.1528445880     A.U. after    9 cycles
 Optimization completed.
    -- Stationary point found.

                         Standard orientation:
 ---------------------------------------------------------------------
 Center     Atomic      Atomic             Coordinates (Angstroms)
 Number     Number       Type             X           Y           Z
 ---------------------------------------------------------------------
      1          7           0        0.000000    0.000000    0.189660
      2          1           0        0.000000    0.809180   -0.442541
      3          1           0        0.700771   -0.404590   -0.442541
      4          1           0       -0.700771   -0.404590   -0.442541
 ---------------------------------------------------------------------

 The electronic state is 1-A1.
 Alpha  occ. eigenvalues --  -15.56299  -1.17739  -0.58731  -0.58731  -0.48703
 Alpha virt. eigenvalues --    0.20116   0.30835   0.30835   0.85645   0.85645
 Alpha virt. eigenvalues --    0.96451   1.18258   1.18258   1.21472   1.86342
 Alpha virt. eigenvalues --    1.96413   1.96413   2.00023   2.68201   2.68201

 Mulliken charges:
               1
     1  N   -0.898358
     2  H    0.299453
     3  H    0.299453
     4  H    0.299453
 Sum of Mulliken charges =   0.00000

 Dipole moment (field-independent basis, Debye):
    X=              0.0000    Y=              0.0000    Z=             -2.6906  Tot=              2.6906
 Quadrupole moment (field-independent basis, Debye-Ang):
   XX=             -7.1220   YY=             -7.1220   ZZ=             -8.0158
   XY=              0.0000   XZ=              0.0000   YZ=              0.0000

 Normal termination of Gaussian 09 at Fri Sep  2 13:39:25 2016.
