 Gaussian 09, Revision D.01,
 Gaussian 09:  ES64L-G09RevD.01 24-Apr-2013

 -----------------------------
 # opt=(z-matrix) rhf/6-31g(d)
 -----------------------------

 -----------
 Ammonia c3v
 -----------
 Symbolic Z-matrix:
 Charge =  0 Multiplicity = 1

 SCF Done:  E(RHF) =  -56.1838558773     A.U. after   10 cycles
 SCF Done:  E(RHF) =  -56.1838563779     A.U. after    8 cycles
 Optimization completed.
    -- Stationary point found.

                         Standard orientation:
 ---------------------------------------------------------------------
 Center     Atomic      Atomic             Coordinates (Angstroms)
 Number     Number       Type             X           Y           Z
 ---------------------------------------------------------------------
      1          7           0        0.000000    0.000000    0.097625
      2          1           0        0.000000    0.945082   -0.227792
      3          1           0        0.818465   -0.472541   -0.227792
      4          1           0       -0.818465   -0.472541   -0.227792
 ---------------------------------------------------------------------

 The electronic state is 1-A1.
 Alpha  occ. eigenvalues --  -15.53037  -1.13569  -0.63200  -0.63200  -0.41102
 Alpha virt. eigenvalues --    0.22514   0.32654   0.32654   0.90465   0.90465
 Alpha virt. eigenvalues --    0.97023   1.19171   1.23916   1.23916   1.34123
 Alpha virt. eigenvalues --    1.96702   1.96702   2.33099   2.76615   2.76615

 Mulliken charges:
               1
     1  N   -1.011870
     2  H    0.337290
     3  H    0.337290
     4  H    0.337290
 Sum of Mulliken charges =   0.00000

 Dipole moment (field-independent basis, Debye):
    X=              0.0000    Y=              0.0000    Z=             -1.7414  Tot=              1.7414
 Quadrupole moment (field-independent basis, Debye-Ang):
   XX=             -5.9266   YY=             -5.9266   ZZ=             -8.9815
   XY=              0.0000   XZ=              0.0000   YZ=              0.0000

 Normal termination of Gaussian 09 at Fri Sep  2 13:34:09 2016.
