 Gaussian 09, Revision D.01,
 Gaussian 09:  ES64L-G09RevD.01 24-Apr-2013

 -----------------------------
 # opt=(z-matrix) rhf/6-31g(d)
 -----------------------------

 -----------
 Ammonia c3v
 -----------
 Symbolic Z-matrix:
 Charge =  0 Multiplicity = 1

 SCF Done:  E(RHF) =  -56.1825391483     A.U. after   10 cycles
 SCF Done:  E(RHF) =  -56.1827015643     A.U. after    9 cycles
 SCF Done:  E(RHF) =  -56.1827019985     A.U. after    7 cycles
 Optimization completed.
    -- Stationary point found.

                         Standard orientation:
 ---------------------------------------------------------------------
 Center     Atomic      Atomic             Coordinates (Angstroms)
 Number     Number       Type             X           Y           Z
 ---------------------------------------------------------------------
      1          7           0        0.000000    0.000000    0.132539
      2          1           0        0.000000    0.905818   -0.309258
      3          1           0        0.784462   -0.452909   -0.309258
      4          1           0       -0.784462   -0.452909   -0.309258
 ---------------------------------------------------------------------

 The electronic state is 1-A1.
 Alpha  occ. eigenvalues --  -15.54129  -1.14852  -0.61926  -0.61926  -0.43567
 Alpha virt. eigenvalues --    0.21863   0.32170   0.32170   0.88341   0.88341
 Alpha virt. eigenvalues --    0.96925   1.22013   1.22013   1.24091   1.44779
 Alpha virt. eigenvalues --    1.96008   1.96008   2.19607   2.76679   2.76679

 Mulliken charges:
               1
     1  N   -0.970383
     2  H    0.323461
     3  H    0.323461
     4  H    0.323461
 Sum of Mulliken charges =   0.00000

 Dipole moment (field-independent basis, Debye):
    X=              0.0000    Y=              0.0000    Z=             -2.1733  Tot=              2.1733
 Quadrupole moment (field-independent basis, Debye-Ang):
   XX=             -6.3046   YY=             -6.3046   ZZ=             -8.6844
   XY=              0.0000   XZ=              0.0000   YZ=              0.0000

 Normal termination of Gaussian 09 at Fri Sep  2 13:36:02 2016.
