 Gaussian 09, Revision D.01,
 Gaussian 09:  ES64L-G09RevD.01 24-Apr-2013

 -----------------------------
 # opt=(z-matrix) rhf/6-31g(d)
 -----------------------------

 -----------
 Ammonia c3v
 -----------
 Symbolic Z-matrix:
 Charge =  0 Multiplicity = 1

 SCF Done:  E(RHF) =  -56.1765166383     A.U. after   10 cycles
 SCF Done:  E(RHF) =  -56.1767684431     A.U. after    9 cycles
 SCF Done:  E(RHF) =  -56.1767723680     A.U. after    8 cycles
 Optimization completed.
    -- Stationary point found.

                         Standard orientation:
 ---------------------------------------------------------------------
 Center     Atomic      Atomic             Coordinates (Angstroms)
 Number     Number       Type             X           Y           Z
 ---------------------------------------------------------------------
      1          7           0        0.000000    0.000000    0.041360
      2          1           0        0.000000    0.980964   -0.096506
      3          1           0        0.849540   -0.490482   -0.096506
      4          1           0       -0.849540   -0.490482   -0.096506
 ---------------------------------------------------------------------

 The electronic state is 1-A1.
 Alpha  occ. eigenvalues --  -15.51783  -1.12199  -0.64337  -0.64337  -0.38521
 Alpha virt. eigenvalues --    0.23069   0.33096   0.33096   0.93178   0.93178
 Alpha virt. eigenvalues --    0.97242   1.08435   1.26057   1.26057   1.32676
 Alpha virt. eigenvalues --    1.98619   1.98619   2.47827   2.72502   2.72502

 Mulliken charges:
               1
     1  N   -1.067522
     2  H    0.355841
     3  H    0.355841
     4  H    0.355841
 Sum of Mulliken charges =   0.00000

 Dipole moment (field-independent basis, Debye):
    X=              0.0000    Y=              0.0000    Z=             -0.8179  Tot=              0.8179
 Quadrupole moment (field-independent basis, Debye-Ang):
   XX=             -5.5286   YY=             -5.5286   ZZ=             -9.2795
   XY=              0.0000   XZ=              0.0000   YZ=              0.0000

 Normal termination of Gaussian 09 at Fri Sep  2 13:42:41 2016.
