 Gaussian 09, Revision D.01,
 Gaussian 09:  ES64L-G09RevD.01 24-Apr-2013

 -----------------------------
 # opt=(z-matrix) rhf/6-31g(d)
 -----------------------------

 -----------
 Ammonia c3v
 -----------
 Symbolic Z-matrix:
 Charge =  0 Multiplicity = 1

 SCF Done:  E(RHF) =  -56.1803210800     A.U. after   10 cycles
 SCF Done:  E(RHF) =  -56.1806109067     A.U. after    9 cycles
 SCF Done:  E(RHF) =  -56.1806114406     A.U. after    7 cycles
 Optimization completed.
    -- Stationary point found.

                         Standard orientation:
 ---------------------------------------------------------------------
 Center     Atomic      Atomic             Coordinates (Angstroms)
 Number     Number       Type             X           Y           Z
 ---------------------------------------------------------------------
      1          7           0        0.000000    0.000000    0.142319
      2          1           0        0.000000    0.892212   -0.332078
      3          1           0        0.772678   -0.446106   -0.332078
      4          1           0       -0.772678   -0.446106   -0.332078
 ---------------------------------------------------------------------

 The electronic state is 1-A1.
 Alpha  occ. eigenvalues --  -15.54466  -1.15270  -0.61482  -0.61482  -0.44355
 Alpha virt. eigenvalues --    0.21629   0.31997   0.31997   0.87766   0.87766
 Alpha virt. eigenvalues --    0.96877   1.21424   1.21424   1.24254   1.50637
 Alpha virt. eigenvalues --    1.95938   1.95938   2.15257   2.76037   2.76037

 Mulliken charges:
               1
     1  N   -0.958716
     2  H    0.319572
     3  H    0.319572
     4  H    0.319572
 Sum of Mulliken charges =   0.00000

 Dipole moment (field-independent basis, Debye):
    X=              0.0000    Y=              0.0000    Z=             -2.2773  Tot=              2.2773
 Quadrupole moment (field-independent basis, Debye-Ang):
   XX=             -6.4269   YY=             -6.4269   ZZ=             -8.5861
   XY=              0.0000   XZ=              0.0000   YZ=              0.0000

 Normal termination of Gaussian 09 at Fri Sep  2 13:36:37 2016.
