 Gaussian 09, Revision D.01,
 Gaussian 09:  ES64L-G09RevD.01 24-Apr-2013

 -----------------------------
 # opt=(z-matrix) rhf/6-31g(d)
 -----------------------------

 -----------
 Ammonia c3v
 -----------
 Symbolic Z-matrix:
 Charge =  0 Multiplicity = 1

 SCF Done:  E(RHF) =  -56.1816736661     A.U. after   10 cycles
 SCF Done:  E(RHF) =  -56.1817261415     A.U. after    9 cycles
 SCF Done:  E(RHF) =  -56.1817266602     A.U. after    8 cycles
 Optimization completed.
    -- Stationary point found.

                         Standard orientation:
 ---------------------------------------------------------------------
 Center     Atomic      Atomic             Coordinates (Angstroms)
 Number     Number       Type             X           Y           Z
 ---------------------------------------------------------------------
      1          7           0        0.000000    0.000000    0.077309
      2          1           0        0.000000    0.961738   -0.180388
      3          1           0        0.832889   -0.480869   -0.180388
      4          1           0       -0.832889   -0.480869   -0.180388
 ---------------------------------------------------------------------

 The electronic state is 1-A1.
 Alpha  occ. eigenvalues --  -15.52497  -1.12967  -0.63729  -0.63729  -0.39953
 Alpha virt. eigenvalues --    0.22775   0.32856   0.32856   0.91616   0.91616
 Alpha virt. eigenvalues --    0.97069   1.14551   1.24842   1.24842   1.32901
 Alpha virt. eigenvalues --    1.97360   1.97360   2.39507   2.75353   2.75353

 Mulliken charges:
               1
     1  N   -1.034779
     2  H    0.344926
     3  H    0.344926
     4  H    0.344926
 Sum of Mulliken charges =   0.00000

 Dipole moment (field-independent basis, Debye):
    X=              0.0000    Y=              0.0000    Z=             -1.4407  Tot=              1.4407
 Quadrupole moment (field-independent basis, Debye-Ang):
   XX=             -5.7506   YY=             -5.7506   ZZ=             -9.1156
   XY=              0.0000   XZ=              0.0000   YZ=              0.0000

 Normal termination of Gaussian 09 at Fri Sep  2 13:33:06 2016.
