 Gaussian 09, Revision D.01,
 Gaussian 09:  ES64L-G09RevD.01 24-Apr-2013

 -----------------------------
 # opt=(z-matrix) rhf/6-31g(d)
 -----------------------------

 -----------
 Ammonia c3v
 -----------
 Symbolic Z-matrix:
 Charge =  0 Multiplicity = 1

 SCF Done:  E(RHF) =  -56.1735925442     A.U. after    9 cycles
 SCF Done:  E(RHF) =  -56.1739780024     A.U. after    7 cycles
 SCF Done:  E(RHF) =  -56.1739852526     A.U. after    7 cycles
 Optimization completed.
    -- Stationary point found.

                         Standard orientation:
 ---------------------------------------------------------------------
 Center     Atomic      Atomic             Coordinates (Angstroms)
 Number     Number       Type             X           Y           Z
 ---------------------------------------------------------------------
      1          7           0        0.000000    0.000000    0.000000
      2          1           0        0.000000    0.988431    0.000000
      3          1           0        0.856006   -0.494215    0.000000
      4          1           0       -0.856006   -0.494215    0.000000
 ---------------------------------------------------------------------

 The electronic state is 1-A1'.
 Alpha  occ. eigenvalues --  -15.51472  -1.11872  -0.64570  -0.64570  -0.37930
 Alpha virt. eigenvalues --    0.23180   0.33193   0.33193   0.93864   0.93864
 Alpha virt. eigenvalues --    0.97444   1.05890   1.26581   1.26581   1.32773
 Alpha virt. eigenvalues --    1.99331   1.99331   2.51422   2.70852   2.70852

 Mulliken charges:
               1
     1  N   -1.082614
     2  H    0.360871
     3  H    0.360871
     4  H    0.360871
 Sum of Mulliken charges =   0.00000

 Dipole moment (field-independent basis, Debye):
    X=              0.0000    Y=              0.0000    Z=              0.0000  Tot=              0.0000
 Quadrupole moment (field-independent basis, Debye-Ang):
   XX=             -5.4355   YY=             -5.4355   ZZ=             -9.3467
   XY=              0.0000   XZ=              0.0000   YZ=              0.0000

 Normal termination of Gaussian 09 at Fri Sep  2 13:40:18 2016.
