 Gaussian 09, Revision D.01,
 Gaussian 09:  ES64L-G09RevD.01 24-Apr-2013

 -----------------------------
 # opt=(z-matrix) rhf/6-31g(d)
 -----------------------------

 -----------
 Ammonia c3v
 -----------
 Symbolic Z-matrix:
 Charge =  0 Multiplicity = 1

 SCF Done:  E(RHF) =  -56.1823355477     A.U. after   10 cycles
 SCF Done:  E(RHF) =  -56.1823680554     A.U. after    8 cycles
 SCF Done:  E(RHF) =  -56.1823683503     A.U. after    8 cycles
 Optimization completed.
    -- Stationary point found.

                         Standard orientation:
 ---------------------------------------------------------------------
 Center     Atomic      Atomic             Coordinates (Angstroms)
 Number     Number       Type             X           Y           Z
 ---------------------------------------------------------------------
      1          7           0        0.000000    0.000000    0.082408
      2          1           0        0.000000    0.957975   -0.192286
      3          1           0        0.829631   -0.478988   -0.192286
      4          1           0       -0.829631   -0.478988   -0.192286
 ---------------------------------------------------------------------

 The electronic state is 1-A1.
 Alpha  occ. eigenvalues --  -15.52625  -1.13107  -0.63609  -0.63609  -0.40219
 Alpha virt. eigenvalues --    0.22717   0.32810   0.32810   0.91340   0.91340
 Alpha virt. eigenvalues --    0.97056   1.15674   1.24623   1.24623   1.33064
 Alpha virt. eigenvalues --    1.97183   1.97183   2.38003   2.75721   2.75721

 Mulliken charges:
               1
     1  N   -1.029216
     2  H    0.343072
     3  H    0.343072
     4  H    0.343072
 Sum of Mulliken charges =   0.00000

 Dipole moment (field-independent basis, Debye):
    X=              0.0000    Y=              0.0000    Z=             -1.5198  Tot=              1.5198
 Quadrupole moment (field-independent basis, Debye-Ang):
   XX=             -5.7915   YY=             -5.7915   ZZ=             -9.0847
   XY=              0.0000   XZ=              0.0000   YZ=              0.0000

 Normal termination of Gaussian 09 at Fri Sep  2 13:33:23 2016.
