 Gaussian 09, Revision D.01,
 Gaussian 09:  ES64L-G09RevD.01 24-Apr-2013

 -----------------------------
 # opt=(z-matrix) rhf/6-31g(d)
 -----------------------------

 -----------
 Ammonia c3v
 -----------
 Symbolic Z-matrix:
 Charge =  0 Multiplicity = 1

 SCF Done:  E(RHF) =  -56.1772055574     A.U. after   10 cycles
 SCF Done:  E(RHF) =  -56.1774276665     A.U. after    9 cycles
 SCF Done:  E(RHF) =  -56.1774309625     A.U. after    8 cycles
 Optimization completed.
    -- Stationary point found.

                         Standard orientation:
 ---------------------------------------------------------------------
 Center     Atomic      Atomic             Coordinates (Angstroms)
 Number     Number       Type             X           Y           Z
 ---------------------------------------------------------------------
      1          7           0        0.000000    0.000000    0.046516
      2          1           0        0.000000    0.978962   -0.108537
      3          1           0        0.847806   -0.489481   -0.108537
      4          1           0       -0.847806   -0.489481   -0.108537
 ---------------------------------------------------------------------

 The electronic state is 1-A1.
 Alpha  occ. eigenvalues --  -15.51862  -1.12284  -0.64274  -0.64274  -0.38676
 Alpha virt. eigenvalues --    0.23039   0.33070   0.33070   0.93003   0.93003
 Alpha virt. eigenvalues --    0.97209   1.09097   1.25922   1.25922   1.32664
 Alpha virt. eigenvalues --    1.98454   1.98454   2.46903   2.72886   2.72886

 Mulliken charges:
               1
     1  N   -1.063728
     2  H    0.354576
     3  H    0.354576
     4  H    0.354576
 Sum of Mulliken charges =   0.00000

 Dipole moment (field-independent basis, Debye):
    X=              0.0000    Y=              0.0000    Z=             -0.9137  Tot=              0.9137
 Quadrupole moment (field-independent basis, Debye-Ang):
   XX=             -5.5529   YY=             -5.5529   ZZ=             -9.2619
   XY=              0.0000   XZ=              0.0000   YZ=              0.0000

 Normal termination of Gaussian 09 at Fri Sep  2 13:42:58 2016.
