 Gaussian 09, Revision D.01,
 Gaussian 09:  ES64L-G09RevD.01 24-Apr-2013

 -----------------------------
 # opt=(z-matrix) rhf/6-31g(d)
 -----------------------------

 -----------
 Ammonia c3v
 -----------
 Symbolic Z-matrix:
 Charge =  0 Multiplicity = 1

 SCF Done:  E(RHF) =  -56.1832930997     A.U. after   10 cycles
 SCF Done:  E(RHF) =  -56.1834071438     A.U. after    9 cycles
 SCF Done:  E(RHF) =  -56.1834075026     A.U. after    7 cycles
 Optimization completed.
    -- Stationary point found.

                         Standard orientation:
 ---------------------------------------------------------------------
 Center     Atomic      Atomic             Coordinates (Angstroms)
 Number     Number       Type             X           Y           Z
 ---------------------------------------------------------------------
      1          7           0        0.000000    0.000000    0.127614
      2          1           0        0.000000    0.912228   -0.297765
      3          1           0        0.790013   -0.456114   -0.297765
      4          1           0       -0.790013   -0.456114   -0.297765
 ---------------------------------------------------------------------

 The electronic state is 1-A1.
 Alpha  occ. eigenvalues --  -15.53965  -1.14651  -0.62135  -0.62135  -0.43185
 Alpha virt. eigenvalues --    0.21972   0.32250   0.32250   0.88638   0.88638
 Alpha virt. eigenvalues --    0.96945   1.22301   1.22301   1.23840   1.42306
 Alpha virt. eigenvalues --    1.96065   1.96065   2.21700   2.76881   2.76881

 Mulliken charges:
               1
     1  N   -0.976261
     2  H    0.325420
     3  H    0.325420
     4  H    0.325420
 Sum of Mulliken charges =   0.00000

 Dipole moment (field-independent basis, Debye):
    X=              0.0000    Y=              0.0000    Z=             -2.1183  Tot=              2.1183
 Quadrupole moment (field-independent basis, Debye-Ang):
   XX=             -6.2457   YY=             -6.2457   ZZ=             -8.7315
   XY=              0.0000   XZ=              0.0000   YZ=              0.0000

 Normal termination of Gaussian 09 at Fri Sep  2 13:35:45 2016.
