 Gaussian 09, Revision D.01,
 Gaussian 09:  ES64L-G09RevD.01 24-Apr-2013

 -----------------------------
 # opt=(z-matrix) rhf/6-31g(d)
 -----------------------------

 -----------
 Ammonia c3v
 -----------
 Symbolic Z-matrix:
 Charge =  0 Multiplicity = 1

 SCF Done:  E(RHF) =  -56.1758786992     A.U. after   10 cycles
 SCF Done:  E(RHF) =  -56.1761586495     A.U. after    9 cycles
 SCF Done:  E(RHF) =  -56.1761632076     A.U. after    8 cycles
 Optimization completed.
    -- Stationary point found.

                         Standard orientation:
 ---------------------------------------------------------------------
 Center     Atomic      Atomic             Coordinates (Angstroms)
 Number     Number       Type             X           Y           Z
 ---------------------------------------------------------------------
      1          7           0        0.000000    0.000000    0.036199
      2          1           0        0.000000    0.982724   -0.084464
      3          1           0        0.851064   -0.491362   -0.084464
      4          1           0       -0.851064   -0.491362   -0.084464
 ---------------------------------------------------------------------

 The electronic state is 1-A1.
 Alpha  occ. eigenvalues --  -15.51711  -1.12124  -0.64392  -0.64392  -0.38383
 Alpha virt. eigenvalues --    0.23095   0.33118   0.33118   0.93336   0.93336
 Alpha virt. eigenvalues --    0.97277   1.07847   1.26178   1.26178   1.32692
 Alpha virt. eigenvalues --    1.98773   1.98773   2.48653   2.72145   2.72145

 Mulliken charges:
               1
     1  N   -1.070943
     2  H    0.356981
     3  H    0.356981
     4  H    0.356981
 Sum of Mulliken charges =   0.00000

 Dipole moment (field-independent basis, Debye):
    X=              0.0000    Y=              0.0000    Z=             -0.7202  Tot=              0.7202
 Quadrupole moment (field-independent basis, Debye-Ang):
   XX=             -5.5071   YY=             -5.5071   ZZ=             -9.2952
   XY=              0.0000   XZ=              0.0000   YZ=              0.0000

 Normal termination of Gaussian 09 at Fri Sep  2 13:42:24 2016.
