 Gaussian 09, Revision D.01,
 Gaussian 09:  ES64L-G09RevD.01 24-Apr-2013

 -----------------------------
 # opt=(z-matrix) rhf/6-31g(d)
 -----------------------------

 -----------
 Ammonia c3v
 -----------
 Symbolic Z-matrix:
 Charge =  0 Multiplicity = 1

 SCF Done:  E(RHF) =  -56.1555867233     A.U. after   10 cycles
 SCF Done:  E(RHF) =  -56.1571466195     A.U. after    9 cycles
 Optimization completed.
    -- Stationary point found.

                         Standard orientation:
 ---------------------------------------------------------------------
 Center     Atomic      Atomic             Coordinates (Angstroms)
 Number     Number       Type             X           Y           Z
 ---------------------------------------------------------------------
      1          7           0        0.000000    0.000000    0.185065
      2          1           0        0.000000    0.818632   -0.431818
      3          1           0        0.708956   -0.409316   -0.431818
      4          1           0       -0.708956   -0.409316   -0.431818
 ---------------------------------------------------------------------

 The electronic state is 1-A1.
 Alpha  occ. eigenvalues --  -15.56107  -1.17456  -0.59041  -0.59041  -0.48242
 Alpha virt. eigenvalues --    0.20293   0.30973   0.30973   0.85782   0.85782
 Alpha virt. eigenvalues --    0.96507   1.18581   1.18581   1.21920   1.86710
 Alpha virt. eigenvalues --    1.96312   1.96312   1.96744   2.69283   2.69283

 Mulliken charges:
               1
     1  N   -0.904966
     2  H    0.301655
     3  H    0.301655
     4  H    0.301655
 Sum of Mulliken charges =   0.00000

 Dipole moment (field-independent basis, Debye):
    X=              0.0000    Y=              0.0000    Z=             -2.6567  Tot=              2.6567
 Quadrupole moment (field-independent basis, Debye-Ang):
   XX=             -7.0469   YY=             -7.0469   ZZ=             -8.0785
   XY=              0.0000   XZ=              0.0000   YZ=              0.0000

 Normal termination of Gaussian 09 at Fri Sep  2 13:39:12 2016.
