 Gaussian 09, Revision D.01,
 Gaussian 09:  ES64L-G09RevD.01 24-Apr-2013

 -----------------------------
 # opt=(z-matrix) rhf/6-31g(d)
 -----------------------------

 -----------
 Ammonia c3v
 -----------
 Symbolic Z-matrix:
 Charge =  0 Multiplicity = 1

 SCF Done:  E(RHF) =  -56.1841700275     A.U. after   10 cycles
 SCF Done:  E(RHF) =  -56.1842148093     A.U. after    8 cycles
 SCF Done:  E(RHF) =  -56.1842149977     A.U. after    7 cycles
 Optimization completed.
    -- Stationary point found.

                         Standard orientation:
 ---------------------------------------------------------------------
 Center     Atomic      Atomic             Coordinates (Angstroms)
 Number     Number       Type             X           Y           Z
 ---------------------------------------------------------------------
      1          7           0        0.000000    0.000000    0.117697
      2          1           0        0.000000    0.924255   -0.274626
      3          1           0        0.800428   -0.462128   -0.274626
      4          1           0       -0.800428   -0.462128   -0.274626
 ---------------------------------------------------------------------

 The electronic state is 1-A1.
 Alpha  occ. eigenvalues --  -15.53644  -1.14267  -0.62526  -0.62526  -0.42449
 Alpha virt. eigenvalues --    0.22173   0.32399   0.32399   0.89245   0.89245
 Alpha virt. eigenvalues --    0.96978   1.22862   1.22862   1.22895   1.38335
 Alpha virt. eigenvalues --    1.96222   1.96222   2.25721   2.77060   2.77060

 Mulliken charges:
               1
     1  N   -0.988101
     2  H    0.329367
     3  H    0.329367
     4  H    0.329367
 Sum of Mulliken charges =   0.00000

 Dipole moment (field-independent basis, Debye):
    X=              0.0000    Y=              0.0000    Z=             -2.0019  Tot=              2.0019
 Quadrupole moment (field-independent basis, Debye-Ang):
   XX=             -6.1326   YY=             -6.1326   ZZ=             -8.8211
   XY=              0.0000   XZ=              0.0000   YZ=              0.0000

 Normal termination of Gaussian 09 at Fri Sep  2 13:35:11 2016.
