 Gaussian 09, Revision D.01,
 Gaussian 09:  ES64L-G09RevD.01 24-Apr-2013

 -----------------------------
 # opt=(z-matrix) rhf/6-31g(d)
 -----------------------------

 -----------
 Ammonia c3v
 -----------
 Symbolic Z-matrix:
 Charge =  0 Multiplicity = 1

 SCF Done:  E(RHF) =  -56.1829310372     A.U. after   10 cycles
 SCF Done:  E(RHF) =  -56.1829478099     A.U. after    8 cycles
 SCF Done:  E(RHF) =  -56.1829479487     A.U. after    7 cycles
 Optimization completed.
    -- Stationary point found.

                         Standard orientation:
 ---------------------------------------------------------------------
 Center     Atomic      Atomic             Coordinates (Angstroms)
 Number     Number       Type             X           Y           Z
 ---------------------------------------------------------------------
      1          7           0        0.000000    0.000000    0.087496
      2          1           0        0.000000    0.953951   -0.204157
      3          1           0        0.826146   -0.476976   -0.204157
      4          1           0       -0.826146   -0.476976   -0.204157
 ---------------------------------------------------------------------

 The electronic state is 1-A1.
 Alpha  occ. eigenvalues --  -15.52758  -1.13254  -0.63481  -0.63481  -0.40500
 Alpha virt. eigenvalues --    0.22654   0.32761   0.32761   0.91056   0.91056
 Alpha virt. eigenvalues --    0.97044   1.16832   1.24395   1.24395   1.33303
 Alpha virt. eigenvalues --    1.97014   1.97014   2.36431   2.76058   2.76058

 Mulliken charges:
               1
     1  N   -1.023524
     2  H    0.341175
     3  H    0.341175
     4  H    0.341175
 Sum of Mulliken charges =   0.00000

 Dipole moment (field-independent basis, Debye):
    X=              0.0000    Y=              0.0000    Z=             -1.5962  Tot=              1.5962
 Quadrupole moment (field-independent basis, Debye-Ang):
   XX=             -5.8346   YY=             -5.8346   ZZ=             -9.0521
   XY=              0.0000   XZ=              0.0000   YZ=              0.0000

 Normal termination of Gaussian 09 at Fri Sep  2 13:33:40 2016.
