 Gaussian 09, Revision D.01,
 Gaussian 09:  ES64L-G09RevD.01 24-Apr-2013

 -----------------------------
 # opt=(z-matrix) rhf/6-31g(d)
 -----------------------------

 -----------
 Ammonia c3v
 -----------
 Symbolic Z-matrix:
 Charge =  0 Multiplicity = 1

 SCF Done:  E(RHF) =  -56.1668780977     A.U. after   10 cycles
 SCF Done:  E(RHF) =  -56.1678573526     A.U. after    9 cycles
 SCF Done:  E(RHF) =  -56.1678576111     A.U. after    7 cycles
 Optimization completed.
    -- Stationary point found.

                         Standard orientation:
 ---------------------------------------------------------------------
 Center     Atomic      Atomic             Coordinates (Angstroms)
 Number     Number       Type             X           Y           Z
 ---------------------------------------------------------------------
      1          7           0        0.000000    0.000000    0.171047
      2          1           0        0.000000    0.845291   -0.399109
      3          1           0        0.732044   -0.422646   -0.399109
      4          1           0       -0.732044   -0.422646   -0.399109
 ---------------------------------------------------------------------

 The electronic state is 1-A1.
 Alpha  occ. eigenvalues --  -15.55532  -1.16672  -0.59934  -0.59934  -0.46892
 Alpha virt. eigenvalues --    0.20792   0.31364   0.31364   0.86303   0.86303
 Alpha virt. eigenvalues --    0.96657   1.19563   1.19563   1.23098   1.74752
 Alpha virt. eigenvalues --    1.96070   1.96070   2.01024   2.72206   2.72206

 Mulliken charges:
               1
     1  N   -0.923668
     2  H    0.307889
     3  H    0.307889
     4  H    0.307889
 Sum of Mulliken charges =   0.00000

 Dipole moment (field-independent basis, Debye):
    X=              0.0000    Y=              0.0000    Z=             -2.5454  Tot=              2.5454
 Quadrupole moment (field-independent basis, Debye-Ang):
   XX=             -6.8282   YY=             -6.8282   ZZ=             -8.2588
   XY=              0.0000   XZ=              0.0000   YZ=              0.0000

 Normal termination of Gaussian 09 at Fri Sep  2 13:38:24 2016.
