 Gaussian 09, Revision D.01,
 Gaussian 09:  ES64L-G09RevD.01 24-Apr-2013

 -----------------------------
 # opt=(z-matrix) rhf/6-31g(d)
 -----------------------------

 -----------
 Ammonia c3v
 -----------
 Symbolic Z-matrix:
 Charge =  0 Multiplicity = 1

 SCF Done:  E(RHF) =  -56.1736423665     A.U. after   11 cycles
 SCF Done:  E(RHF) =  -56.1740254529     A.U. after    9 cycles
 SCF Done:  E(RHF) =  -56.1740326371     A.U. after    7 cycles
 Optimization completed.
    -- Stationary point found.

                         Standard orientation:
 ---------------------------------------------------------------------
 Center     Atomic      Atomic             Coordinates (Angstroms)
 Number     Number       Type             X           Y           Z
 ---------------------------------------------------------------------
      1          7           0        0.000000    0.000000    0.005175
      2          1           0        0.000000    0.988315   -0.012076
      3          1           0        0.855906   -0.494157   -0.012076
      4          1           0       -0.855906   -0.494157   -0.012076
 ---------------------------------------------------------------------

 The electronic state is 1-A1.
 Alpha  occ. eigenvalues --  -15.51477  -1.11877  -0.64567  -0.64567  -0.37939
 Alpha virt. eigenvalues --    0.23178   0.33191   0.33191   0.93853   0.93853
 Alpha virt. eigenvalues --    0.97440   1.05931   1.26573   1.26573   1.32771
 Alpha virt. eigenvalues --    1.99319   1.99319   2.51364   2.70881   2.70881

 Mulliken charges:
               1
     1  N   -1.082368
     2  H    0.360789
     3  H    0.360789
     4  H    0.360789
 Sum of Mulliken charges =   0.00000

 Dipole moment (field-independent basis, Debye):
    X=              0.0000    Y=              0.0000    Z=             -0.1050  Tot=              0.1050
 Quadrupole moment (field-independent basis, Debye-Ang):
   XX=             -5.4370   YY=             -5.4370   ZZ=             -9.3456
   XY=              0.0000   XZ=              0.0000   YZ=              0.0000

 Normal termination of Gaussian 09 at Fri Sep  2 13:40:36 2016.
