 Gaussian 09, Revision D.01,
 Gaussian 09:  ES64L-G09RevD.01 24-Apr-2013

 -----------------------------
 # opt=(z-matrix) rhf/6-31g(d)
 -----------------------------

 -----------
 Ammonia c3v
 -----------
 Symbolic Z-matrix:
 Charge =  0 Multiplicity = 1

 SCF Done:  E(RHF) =  -56.1406907298     A.U. after   10 cycles
 SCF Done:  E(RHF) =  -56.1430635380     A.U. after    9 cycles
 SCF Done:  E(RHF) =  -56.1430638267     A.U. after    7 cycles
 Optimization completed.
    -- Stationary point found.

                         Standard orientation:
 ---------------------------------------------------------------------
 Center     Atomic      Atomic             Coordinates (Angstroms)
 Number     Number       Type             X           Y           Z
 ---------------------------------------------------------------------
      1          7           0        0.000000    0.000000    0.198833
      2          1           0        0.000000    0.789867   -0.463944
      3          1           0        0.684045   -0.394934   -0.463944
      4          1           0       -0.684045   -0.394934   -0.463944
 ---------------------------------------------------------------------

 The electronic state is 1-A1.
 Alpha  occ. eigenvalues --  -15.56708  -1.18307  -0.58075  -0.58075  -0.49642
 Alpha virt. eigenvalues --    0.19738   0.30529   0.30529   0.85440   0.85440
 Alpha virt. eigenvalues --    0.96334   1.17581   1.17581   1.20440   1.81318
 Alpha virt. eigenvalues --    1.96651   1.96651   2.11181   2.65826   2.65826

 Mulliken charges:
               1
     1  N   -0.884199
     2  H    0.294733
     3  H    0.294733
     4  H    0.294733
 Sum of Mulliken charges =   0.00000

 Dipole moment (field-independent basis, Debye):
    X=              0.0000    Y=              0.0000    Z=             -2.7533  Tot=              2.7533
 Quadrupole moment (field-independent basis, Debye-Ang):
   XX=             -7.2763   YY=             -7.2763   ZZ=             -7.8877
   XY=              0.0000   XZ=              0.0000   YZ=              0.0000

 Normal termination of Gaussian 09 at Fri Sep  2 13:40:00 2016.
