 Gaussian 09, Revision D.01,
 Gaussian 09:  ES64L-G09RevD.01 24-Apr-2013

 -----------------------------------------------------------
 # b3lyp/6-311+g(2d,p) nmr=(giao,spinspin) geom=connectivity
 -----------------------------------------------------------

 -------------------
 Title Card Required
 -------------------
 Symbolic Z-matrix:
 Charge =  0 Multiplicity = 1

                         Standard orientation:
 ---------------------------------------------------------------------
 Center     Atomic      Atomic             Coordinates (Angstroms)
 Number     Number       Type             X           Y           Z
 ---------------------------------------------------------------------
      1          6           0       -1.218366   -0.217723    0.000072
      2          6           0        0.089751    0.540215   -0.000020
      3          8           0        1.141847   -0.390535   -0.000098
      4          1           0       -2.055083    0.473363   -0.000214
      5          1           0       -1.290881   -0.848335   -0.878642
      6          1           0       -1.291080   -0.848272    0.878779
      7          1           0        0.151821    1.178426   -0.878537
      8          1           0        0.151887    1.178551    0.878426
      9          1           0        1.970250    0.055597    0.000662
 ---------------------------------------------------------------------

 SCF Done:  E(RB3LYP) =  -155.097351706     A.U. after   10 cycles

      1  C    Isotropic =   166.8413   Anisotropy =    26.9369

      2  C    Isotropic =   123.5335   Anisotropy =    62.5955

      3  O    Isotropic =   299.6736   Anisotropy =   110.9141

      4  H    Isotropic =    31.2425   Anisotropy =     8.8393

      5  H    Isotropic =    30.8989   Anisotropy =     7.4412

      6  H    Isotropic =    30.8995   Anisotropy =     7.4427

      7  H    Isotropic =    28.2984   Anisotropy =     6.8695

      8  H    Isotropic =    28.2984   Anisotropy =     6.8677

      9  H    Isotropic =    32.7116   Anisotropy =    19.4122

 The electronic state is 1-A.
 Alpha  occ. eigenvalues --  -19.12155 -10.21403 -10.15564  -1.03392  -0.75597
 Alpha  occ. eigenvalues --   -0.61885  -0.53054  -0.47328  -0.41106  -0.38959
 Alpha  occ. eigenvalues --   -0.37216  -0.33739  -0.27938
 Alpha virt. eigenvalues --    0.00004   0.02249   0.03745   0.04393   0.06944
 Alpha virt. eigenvalues --    0.07775   0.08104   0.12577   0.14276   0.15610
 Alpha virt. eigenvalues --    0.17010   0.17992   0.18173   0.21983   0.22890

 Mulliken charges:
               1
     1  C   -0.329399
     2  C   -0.026466
     3  O   -0.433483
     4  H    0.109945
     5  H    0.119766
     6  H    0.119743
     7  H    0.088873
     8  H    0.088867
     9  H    0.262154
 Sum of Mulliken charges =   0.00000

 Dipole moment (field-independent basis, Debye):
    X=              0.1700    Y=              1.6110    Z=              0.0013  Tot=              1.6200
 Quadrupole moment (field-independent basis, Debye-Ang):
   XX=            -17.2434   YY=            -21.0460   ZZ=            -20.4123
   XY=              1.9817   XZ=              0.0033   YZ=              0.0000

 Normal termination of Gaussian 09 at Tue Oct 18 19:14:01 2016.
