 Gaussian 09, Revision D.01,
 Gaussian 09:  ES64L-G09RevD.01 24-Apr-2013

 -------------------------------------------------
 #stable=opt b3lyp/6-311+G(2d,p) geom=connectivity
 -------------------------------------------------

 -------------------
 Title Card Required
 -------------------
 Symbolic Z-matrix:
 Charge =  0 Multiplicity = 1

                         Standard orientation:
 ---------------------------------------------------------------------
 Center     Atomic      Atomic             Coordinates (Angstroms)
 Number     Number       Type             X           Y           Z
 ---------------------------------------------------------------------
      1          8           0        1.174673   -0.051783    0.000000
      2          8           0        0.000000    0.459702    0.000000
      3          8           0       -1.174673   -0.407918    0.000000
 ---------------------------------------------------------------------

 SCF Done:  E(RB3LYP) =  -225.465099096     A.U. after   16 cycles
 SCF Done:  E(UB3LYP) =  -225.477356846     a.u. after    9 cycles

 The electronic state is 1-A'.
 Alpha  occ. eigenvalues --  -19.38065 -19.27263 -19.26809  -1.29088  -1.05946
 Alpha  occ. eigenvalues --   -0.81333  -0.58813  -0.55876  -0.54934  -0.41571
 Alpha  occ. eigenvalues --   -0.37600  -0.35295
 Alpha virt. eigenvalues --   -0.18830  -0.07599   0.06923   0.07144   0.11812
 Alpha virt. eigenvalues --    0.12086   0.14965   0.17765   0.18488   0.18508
 Alpha virt. eigenvalues --    0.21676   0.21894   0.26356   0.31003   0.34193

  Beta  occ. eigenvalues --  -19.38536 -19.28669 -19.25058  -1.30591  -1.03725
  Beta  occ. eigenvalues --   -0.81852  -0.59119  -0.57952  -0.56630  -0.37687
  Beta  occ. eigenvalues --   -0.36881  -0.35255
  Beta virt. eigenvalues --   -0.20185  -0.06569   0.06227   0.07164   0.11984
  Beta virt. eigenvalues --    0.12151   0.14584   0.17609   0.18323   0.18745
  Beta virt. eigenvalues --    0.21507   0.21897   0.26355   0.30942   0.34220

 Mulliken charges and spin densities:
               1          2
     1  O   -0.057516  -0.647310
     2  O    0.144834  -0.150997
     3  O   -0.087318   0.798308
 Sum of Mulliken charges =   0.00000   0.00000

 Dipole moment (field-independent basis, Debye):
    X=              0.2102    Y=              0.3716    Z=              0.0000  Tot=              0.4270
 Quadrupole moment (field-independent basis, Debye-Ang):
   XX=            -16.7040   YY=            -16.3820   ZZ=            -14.8571
   XY=              0.0780   XZ=              0.0000   YZ=              0.0000

 Normal termination of Gaussian 09 at Fri Oct 14 12:00:09 2016.
