 Gaussian 09, Revision D.01,
 Gaussian 09:  ES64L-G09RevD.01 24-Apr-2013

 -----------------------------------------------
 #opt freq b3lyp/6-311+G(2d,p) geom=connectivity
 -----------------------------------------------

 -------------------
 Title Card Required
 -------------------
 Symbolic Z-matrix:
 Charge =  0 Multiplicity = 1

 SCF Done:  E(RB3LYP) =  -225.465099096     A.U. after   16 cycles
 SCF Done:  E(RB3LYP) =  -225.485770709     A.U. after   14 cycles
 SCF Done:  E(RB3LYP) =  -225.488592875     A.U. after   13 cycles
 SCF Done:  E(RB3LYP) =  -225.490102982     A.U. after   12 cycles
 SCF Done:  E(RB3LYP) =  -225.490171315     A.U. after    9 cycles
 SCF Done:  E(RB3LYP) =  -225.490175607     A.U. after    8 cycles
 Optimization completed.
    -- Stationary point found.

 1\1\GINC-TC-NODE158\FOpt\RB3LYP\6-311+G(2d,p)\O3\EPKTB\14-Oct-2016\0\\
 #opt freq b3lyp/6-311+G(2d,p) geom=connectivity\\Title Card Required\\
 0,1\O,0.0473251077,0.,0.0631455968\O,0.0549447004,0.,1.3198868243\O,1.
 1652982574,0.,1.908792642\\Version=ES64L-G09RevD.01\State=1-A'\HF=-225
 .4901756\RMSD=9.994e-09\RMSF=2.591e-05\Dipole=-0.2295322,0.,0.1388464\
 Quadrupole=-0.2933305,1.012145,-0.7188146,0.,-0.4070173,0.\PG=CS [SG(O
 3)]\\@

 Normal termination of Gaussian 09 at Fri Oct 14 11:54:09 2016.

 ----------------------------------------------------------------------
 #N Geom=AllCheck Guess=TCheck SCRF=Check GenChk RB3LYP/6-311+G(2d,p) F
 req
 ----------------------------------------------------------------------

 Structure from the checkpoint file:  "ozone.chk"
 -------------------
 Title Card Required
 -------------------
 Charge =  0 Multiplicity = 1

                         Standard orientation:
 ---------------------------------------------------------------------
 Center     Atomic      Atomic             Coordinates (Angstroms)
 Number     Number       Type             X           Y           Z
 ---------------------------------------------------------------------
      1          8           0        1.078920   -0.214773    0.000000
      2          8           0        0.000000    0.429732    0.000000
      3          8           0       -1.078920   -0.214959    0.000000
 ---------------------------------------------------------------------

 SCF Done:  E(RB3LYP) =  -225.490175607     A.U. after    1 cycles

 The electronic state is 1-A'.
 Alpha  occ. eigenvalues --  -19.43872 -19.25606 -19.25602  -1.38767  -1.11808
 Alpha  occ. eigenvalues --   -0.79361  -0.61804  -0.60941  -0.60841  -0.37963
 Alpha  occ. eigenvalues --   -0.36323  -0.35291
 Alpha virt. eigenvalues --   -0.20072   0.04832   0.06826   0.08630   0.11734
 Alpha virt. eigenvalues --    0.12713   0.16596   0.18673   0.19404   0.20327
 Alpha virt. eigenvalues --    0.21080   0.21139   0.26954   0.30323   0.34468

 Mulliken charges:
               1
     1  O   -0.127134
     2  O    0.254336
     3  O   -0.127201
 Sum of Mulliken charges =   0.00000

 Dipole moment (field-independent basis, Debye):
    X=              0.0004    Y=              0.6818    Z=              0.0000  Tot=              0.6818
 Quadrupole moment (field-independent basis, Debye-Ang):
   XX=            -17.3962   YY=            -16.1608   ZZ=            -14.7365
   XY=             -0.0001   XZ=              0.0000   YZ=              0.0000

  Exact polarizability:  29.832   0.002  11.929   0.000   0.000   9.573
 Approx polarizability:  84.884   0.008  16.877   0.000   0.000  12.692

                      1                      2                      3
                     A'                     A'                     A'
 Frequencies --    743.8508              1207.5680              1256.2113
 Red. masses --     15.9949                15.9949                15.9949
 Frc consts  --      5.2144                13.7422                14.8716
 IR Inten    --      5.8060               238.6312                 0.0151

 - Thermochemistry -
 -------------------
 Temperature   298.150 Kelvin.  Pressure   1.00000 Atm.
 Atom     1 has atomic number  8 and mass  15.99491

 Molecular mass:    47.98474 amu.
 Principal axes and moments of inertia in atomic units:
                           1         2         3
     Eigenvalues --    15.82218 132.98066 148.80284
           X            1.00000  -0.00010   0.00000
           Y            0.00010   1.00000   0.00000
           Z            0.00000   0.00000   1.00000
 This molecule is an asymmetric top.
 Rotational symmetry number  1.
 Rotational temperatures (Kelvin)      5.47420     0.65133     0.58207
 Rotational constants (GHZ):         114.06401    13.57146    12.12841
 Zero-point vibrational energy      19185.9 (Joules/Mol)
                                    4.58554 (Kcal/Mol)
 Vibrational temperatures:   1070.23  1737.42  1807.41
          (Kelvin)

 Zero-point correction=                           0.007308 (Hartree/Particle)
 Thermal correction to Energy=                    0.010266
 Thermal correction to Enthalpy=                  0.011210
 Thermal correction to Gibbs Free Energy=        -0.016460
 Sum of electronic and zero-point Energies=           -225.482868
 Sum of electronic and thermal Energies=              -225.479910
 Sum of electronic and thermal Enthalpies=            -225.478965
 Sum of electronic and thermal Free Energies=         -225.506636

                     E (Thermal)             CV                S
                      KCal/Mol        Cal/Mol-Kelvin    Cal/Mol-Kelvin
 Total                    6.442              7.080             58.237
 Electronic               0.000              0.000              0.000
 Translational            0.889              2.981             37.529
 Rotational               0.889              2.981             20.376
 Vibrational              4.665              1.119              0.331

 Optimization completed.
    -- Stationary point found.

 1\1\GINC-TC-NODE158\Freq\RB3LYP\6-311+G(2d,p)\O3\EPKTB\14-Oct-2016\0\\
 #N Geom=AllCheck Guess=TCheck SCRF=Check GenChk RB3LYP/6-311+G(2d,p) F
 req\\Title Card Required\\0,1\O,0.046281559,0.,0.0635468617\O,0.053901
 1518,0.,1.3202880893\O,1.1642547087,0.,1.9091939069\\Version=ES64L-G09
 RevD.01\State=1-A'\HF=-225.4901756\RMSD=1.462e-09\RMSF=2.590e-05\ZeroP
 oint=0.0073075\Thermal=0.0102659\Dipole=-0.2295325,0.,0.138846\DipoleD
 eriv=-0.1646478,0.,0.0276285,0.,-0.1100765,0.,-0.5453599,0.,-0.6858999
 ,0.5261989,0.,0.6204486,0.,0.2202211,0.,0.6205924,0.,1.1748519,-0.3615

 Normal termination of Gaussian 09 at Fri Oct 14 11:54:15 2016.
