 Gaussian 09, Revision D.01,
 Gaussian 09:  ES64L-G09RevD.01 24-Apr-2013

 --------------------------------------------------
 #t opt freq=raman b3lyp/6-311g** geom=connectivity
 --------------------------------------------------
 -------------------
 Title Card Required
 -------------------
 Symbolic Z-matrix:
 Charge =  0 Multiplicity = 1

 SCF Done:  E(RB3LYP) =  -921.716456432     A.U. after   15 cycles
 SCF Done:  E(RB3LYP) =  -921.713707799     A.U. after   15 cycles
 SCF Done:  E(RB3LYP) =  -921.721001382     A.U. after   11 cycles
 SCF Done:  E(RB3LYP) =  -921.725009453     A.U. after   12 cycles
 SCF Done:  E(RB3LYP) =  -921.724804659     A.U. after   14 cycles
 SCF Done:  E(RB3LYP) =  -921.725547824     A.U. after   10 cycles
 SCF Done:  E(RB3LYP) =  -921.725742934     A.U. after   12 cycles
 SCF Done:  E(RB3LYP) =  -921.725954673     A.U. after   11 cycles
 SCF Done:  E(RB3LYP) =  -921.726048358     A.U. after   10 cycles
 SCF Done:  E(RB3LYP) =  -921.726078625     A.U. after   10 cycles
 SCF Done:  E(RB3LYP) =  -921.727673878     A.U. after   12 cycles
 SCF Done:  E(RB3LYP) =  -921.727891557     A.U. after   11 cycles
 SCF Done:  E(RB3LYP) =  -921.727917261     A.U. after    9 cycles
 SCF Done:  E(RB3LYP) =  -921.727933905     A.U. after   10 cycles
 SCF Done:  E(RB3LYP) =  -921.727947544     A.U. after   10 cycles
 SCF Done:  E(RB3LYP) =  -921.727955821     A.U. after   10 cycles
 SCF Done:  E(RB3LYP) =  -921.727957307     A.U. after    8 cycles
 SCF Done:  E(RB3LYP) =  -921.727958028     A.U. after    8 cycles
 SCF Done:  E(RB3LYP) =  -921.727958266     A.U. after    7 cycles
 Optimization completed.
    -- Stationary point found.
 Normal termination of Gaussian 09 at Fri Oct 28 13:05:21 2016.

 ----------------------------------------------------------------------
 #T Geom=AllCheck Guess=TCheck SCRF=Check GenChk RB3LYP/6-311G(d,p) Fre
 q
 ----------------------------------------------------------------------
 Structure from the checkpoint file:  "AT-single.chk"
 -------------------
 Title Card Required
 -------------------
 Charge =  0 Multiplicity = 1

                         Standard orientation:
 ---------------------------------------------------------------------
 Center     Atomic      Atomic             Coordinates (Angstroms)
 Number     Number       Type             X           Y           Z
 ---------------------------------------------------------------------
      1          7           0       -4.989852    0.543984    0.000381
      2          6           0       -5.235088   -0.814286    0.000366
      3          7           0       -4.143733   -1.534534    0.000081
      4          6           0       -3.122666   -0.601929   -0.000086
      5          6           0       -1.716211   -0.736227   -0.000247
      6          7           0       -1.096811   -1.925363   -0.000374
      7          7           0       -0.985527    0.399965   -0.000286
      8          6           0       -1.608005    1.592974   -0.000175
      9          7           0       -2.914820    1.836541    0.000043
     10          6           0       -3.623047    0.700302    0.000114
     11          7           0        3.882665    1.573697    0.000247
     12          6           0        4.583521    0.390322    0.000359
     13          6           0        3.971918   -0.813110    0.000195
     14          6           0        4.699934   -2.124165    0.000381
     15          6           0        2.507153   -0.831980   -0.000176
     16          8           0        1.847194   -1.869157   -0.000300
     17          7           0        1.882655    0.408486   -0.000396
     18          6           0        2.492055    1.646488   -0.000132
     19          8           0        1.896322    2.704496   -0.000130
     20          1           0       -6.241113   -1.206859    0.000536
     21          1           0       -1.657010   -2.760989   -0.000180
     22          1           0       -0.945001    2.453107   -0.000263
     23          1           0        5.662342    0.491195    0.000658
     24          1           0        4.429825   -2.719570   -0.876051
     25          1           0        4.429633   -2.719454    0.876828
     26          1           0        5.781778   -1.975369    0.000474
     27          1           0        0.837151    0.414274   -0.000341
     28          1           0       -0.078565   -1.982352   -0.000404
     29          1           0        4.359476    2.462133    0.000148
     30          1           0       -5.666055    1.291413    0.000568
 ---------------------------------------------------------------------

 SCF Done:  E(RB3LYP) =  -921.727958266     A.U. after    1 cycles

 The electronic state is 1-A.
 Alpha  occ. eigenvalues --  -19.09862 -19.09254 -14.37715 -14.37591 -14.34686
 Alpha  occ. eigenvalues --  -14.32063 -14.30851 -14.30415 -14.30004 -10.31433
 Alpha  occ. eigenvalues --  -10.28760 -10.25939 -10.24545 -10.24515 -10.24117
 Alpha  occ. eigenvalues --  -10.22977 -10.19517 -10.19469 -10.17739  -1.07430
 Alpha  occ. eigenvalues --   -1.04628  -1.03760  -0.97980  -0.97736  -0.93461
 Alpha  occ. eigenvalues --   -0.92027  -0.88848  -0.85896  -0.81826  -0.76558
 Alpha  occ. eigenvalues --   -0.71642  -0.67579  -0.66604  -0.66000  -0.65105
 Alpha  occ. eigenvalues --   -0.63004  -0.58153  -0.56960  -0.56594  -0.54856
 Alpha  occ. eigenvalues --   -0.51699  -0.51450  -0.49744  -0.47966  -0.47795
 Alpha  occ. eigenvalues --   -0.46738  -0.46085  -0.44311  -0.43924  -0.42995
 Alpha  occ. eigenvalues --   -0.42842  -0.42247  -0.40655  -0.40572  -0.39846
 Alpha  occ. eigenvalues --   -0.39220  -0.35912  -0.35820  -0.31970  -0.30050
 Alpha  occ. eigenvalues --   -0.29558  -0.28848  -0.28337  -0.27193  -0.27115
 Alpha  occ. eigenvalues --   -0.25560  -0.24362  -0.22048
 Alpha virt. eigenvalues --   -0.04159  -0.02184   0.00094   0.01182   0.02354
 Alpha virt. eigenvalues --    0.03692   0.03745   0.05287   0.07218   0.07990
 Alpha virt. eigenvalues --    0.08479   0.10332   0.11471   0.11978   0.14169

 Mulliken charges:
               1
     1  N   -0.389558
     2  C    0.170357
     3  N   -0.334614
     4  C   -0.103960
     5  C    0.491506
     6  N   -0.475951
     7  N   -0.512057
     8  C    0.162018
     9  N   -0.336706
    10  C    0.358220
    11  N   -0.418027
    12  C    0.219951
    13  C   -0.336617
    14  C   -0.225403
    15  C    0.471885
    16  O   -0.410187
    17  N   -0.456827
    18  C    0.490804
    19  O   -0.364107
    20  H    0.114618
    21  H    0.237143
    22  H    0.128345
    23  H    0.118396
    24  H    0.128916
    25  H    0.128915
    26  H    0.097078
    27  H    0.303517
    28  H    0.259892
    29  H    0.245737
    30  H    0.236714
 Sum of Mulliken charges =   0.00000

 Dipole moment (field-independent basis, Debye):
    X=              1.5630    Y=             -0.3487    Z=              0.0016  Tot=              1.6014
  Exact polarizability: 224.904  -0.805 182.292  -0.003   0.002  73.522
 Approx polarizability: 309.592   1.065 335.390  -0.009   0.012 116.913
 Calling FoFJK, ICntrl=    100127 FMM=F ISym2X=0 I1Cent= 0 IOpClX= 0 NMat=1 NMatS=1 NMatT=0.
 Full mass-weighted force constant matrix:
 Low frequencies ---   -3.2703   -0.0004    0.0002    0.0007    3.2765    6.7792
 Low frequencies ---   21.1810   32.8074   59.5266
 Diagonal vibrational polarizability:
       62.1496847      36.5485293     432.4018522
 Diagonal vibrational hyperpolarizability:
      -23.2306582     -95.7000444       4.5620068

                      1                      2                      3
                      A                      A                      A
 Frequencies --     21.1713                32.8018                59.5232
 Red. masses --      5.6125                 6.7945                 6.5468
 Frc consts  --      0.0015                 0.0043                 0.0137
 IR Inten    --      6.3011                 0.0039                 3.4656
 Raman Activ --      0.7475                 0.3334                 0.9491

                      4                      5                      6
                      A                      A                      A
 Frequencies --     68.4907               102.7808               107.0685
 Red. masses --      7.1564                 8.1558                 7.0312
 Frc consts  --      0.0198                 0.0508                 0.0475
 IR Inten    --      0.2101                 0.3855                 0.6323
 Raman Activ --      6.1587                 0.2222                 0.2381

                      7                      8                      9
                      A                      A                      A
 Frequencies --    113.4870               141.7733               165.0801
 Red. masses --      4.2194                 1.1222                 7.4947
 Frc consts  --      0.0320                 0.0133                 0.1203
 IR Inten    --      0.6113                 0.3506                 0.5291
 Raman Activ --      0.4556                 0.2947                 0.2007

                     10                     11                     12
                      A                      A                      A
 Frequencies --    171.4170               228.1202               287.8411
 Red. masses --      8.0014                 5.1391                 3.2430
 Frc consts  --      0.1385                 0.1576                 0.1583
 IR Inten    --      0.1634                 1.8322                 1.3431
 Raman Activ --      0.3004                 0.1007                 0.0943

                     13                     14                     15
                      A                      A                      A
 Frequencies --    299.4446               303.7690               311.4345
 Red. masses --      4.2929                 7.4618                 3.6475
 Frc consts  --      0.2268                 0.4057                 0.2084
 IR Inten    --      0.9171                 0.0124                39.0131
 Raman Activ --      0.1733                 0.0875                 7.1529

                     16                     17                     18
                      A                      A                      A
 Frequencies --    404.3208               409.4271               414.8869
 Red. masses --      2.0944                10.8895                 1.3562
 Frc consts  --      0.2017                 1.0755                 0.1375
 IR Inten    --     93.6309                62.6129                73.6475
 Raman Activ --      0.5616                 1.4353                 2.6733

                     19                     20                     21
                      A                      A                      A
 Frequencies --    472.4182               532.9608               536.6792
 Red. masses --      6.7734                 4.3856                 1.6682
 Frc consts  --      0.8907                 0.7340                 0.2831
 IR Inten    --     17.3026                 4.4323                57.8382
 Raman Activ --      4.9179                 7.2810                 1.9486

                     22                     23                     24
                      A                      A                      A
 Frequencies --    537.8361               552.8565               574.5795
 Red. masses --      8.9762                 8.0101                 1.1181
 Frc consts  --      1.5298                 1.4425                 0.2175
 IR Inten    --      4.0148                34.5571                83.6145
 Raman Activ --      2.8288                 3.5591                 0.8548

                     25                     26                     27
                      A                      A                      A
 Frequencies --    586.4593               617.1318               637.2607
 Red. masses --      2.0975                 5.0416                 6.7330
 Frc consts  --      0.4250                 1.1313                 1.6110
 IR Inten    --     52.6927                 9.8665                 9.9769
 Raman Activ --      0.7094                 3.2936                 5.0101

                     28                     29                     30
                      A                      A                      A
 Frequencies --    667.2653               693.3000               722.5604
 Red. masses --      2.8940                 8.6010                 1.0967
 Frc consts  --      0.7592                 2.4358                 0.3373
 IR Inten    --      0.2071                 0.0708                30.9758
 Raman Activ --      0.5658                 0.0227                 0.0103

                     31                     32                     33
                      A                      A                      A
 Frequencies --    727.6818               746.9214               765.0028
 Red. masses --      6.9878                 6.3635                10.7314
 Frc consts  --      2.1801                 2.0917                 3.7002
 IR Inten    --      2.4610                28.6657                12.4436
 Raman Activ --     24.1930                22.2192                 0.1697

                     34                     35                     36
                      A                      A                      A
 Frequencies --    776.9321               809.1803               817.2745
 Red. masses --      6.2477                 6.2488                 5.2284
 Frc consts  --      2.2220                 2.4107                 2.0576
 IR Inten    --     10.6188                 8.2490                 9.7422
 Raman Activ --      1.3578                 4.3820                 0.4231

                     37                     38                     39
                      A                      A                      A
 Frequencies --    850.6497               912.2688               912.5962
 Red. masses --      1.6526                 1.3492                 8.0417
 Frc consts  --      0.7046                 0.6616                 3.9460
 IR Inten    --      5.5813                12.1006                 9.5164
 Raman Activ --      0.1808                 1.9434                 2.1009

                     40                     41                     42
                      A                      A                      A
 Frequencies --    948.3583               984.2422               997.5804
 Red. masses --      7.5852                 2.6913                 1.3206
 Frc consts  --      4.0194                 1.5361                 0.7743
 IR Inten    --     16.9913                17.8156                28.1831
 Raman Activ --      4.6280                 6.9991                 0.3985

                     43                     44                     45
                      A                      A                      A
 Frequencies --   1008.7319              1024.4172              1041.0310
 Red. masses --      1.1472                 1.8060                 1.9862
 Frc consts  --      0.6878                 1.1167                 1.2683
 IR Inten    --     48.2945                16.5424                19.8756
 Raman Activ --      0.4303                 3.1214                 9.4678

                     46                     47                     48
                      A                      A                      A
 Frequencies --   1068.7990              1078.1809              1152.8199
 Red. masses --      1.4405                 1.7274                 4.0554
 Frc consts  --      0.9695                 1.1831                 3.1755
 IR Inten    --      1.7355                21.0735                16.4673
 Raman Activ --      0.0624                 8.1350                 1.6604

                     49                     50                     51
                      A                      A                      A
 Frequencies --   1173.7398              1224.6694              1229.8549
 Red. masses --      2.0241                 4.5434                 3.1186
 Frc consts  --      1.6429                 4.0148                 2.7792
 IR Inten    --     14.9229                57.6236                63.0176
 Raman Activ --      1.7745                 2.4810                 3.0901

                     52                     53                     54
                      A                      A                      A
 Frequencies --   1261.9346              1266.8625              1339.3307
 Red. masses --      3.4654                 1.7621                 3.4370
 Frc consts  --      3.2514                 1.6663                 3.6325
 IR Inten    --     33.1867                22.8931               113.8311
 Raman Activ --     30.8562                 1.5493                22.4759

                     55                     56                     57
                      A                      A                      A
 Frequencies --   1354.0064              1371.8421              1373.5367
 Red. masses --      5.6324                 1.8361                 2.6403
 Frc consts  --      6.0839                 2.0359                 2.9348
 IR Inten    --     39.0307                18.0033                 6.9674
 Raman Activ --     69.5987                27.0932                37.5702

                     58                     59                     60
                      A                      A                      A
 Frequencies --   1417.9538              1423.5917              1426.0000
 Red. masses --      2.2507                 1.4447                 2.4467
 Frc consts  --      2.6662                 1.7250                 2.9314
 IR Inten    --     13.0728                34.0536                83.8966
 Raman Activ --     27.2601                15.4895                 2.4400

                     61                     62                     63
                      A                      A                      A
 Frequencies --   1444.8686              1471.3649              1493.3478
 Red. masses --      4.0162                 1.0420                 1.2401
 Frc consts  --      4.9400                 1.3290                 1.6294
 IR Inten    --      7.7751                 7.6931                12.4511
 Raman Activ --      0.8982                12.6963                 6.7067

                     64                     65                     66
                      A                      A                      A
 Frequencies --   1505.7453              1512.4453              1524.7730
 Red. masses --      2.1230                 3.9798                 2.8842
 Frc consts  --      2.8359                 5.3638                 3.9508
 IR Inten    --     72.3942                72.5756                20.2796
 Raman Activ --     16.0411                66.6169                28.9520

                     67                     68                     69
                      A                      A                      A
 Frequencies --   1551.8296              1625.3150              1638.8286
 Red. masses --      1.7182                 4.1984                 4.0248
 Frc consts  --      2.4378                 6.5345                 6.3689
 IR Inten    --     53.5568                16.3581               280.5708
 Raman Activ --     14.9831                10.2189                 9.5240

                     70                     71                     72
                      A                      A                      A
 Frequencies --   1688.7102              1697.3656              1735.6876
 Red. masses --      1.8370                 5.6590                 4.9587
 Frc consts  --      3.0865                 9.6059                 8.8015
 IR Inten    --    384.5015                14.4530               452.4913
 Raman Activ --      7.5000                23.4815                77.8550

                     73                     74                     75
                      A                      A                      A
 Frequencies --   1812.7475              2986.8915              3031.8830
 Red. masses --      5.6562                 1.0940                 1.0352
 Frc consts  --     10.9508                 5.7506                 5.6068
 IR Inten    --    646.7009              2178.1368                18.3555
 Raman Activ --     11.6446               668.3182               183.1262

                     76                     77                     78
                      A                      A                      A
 Frequencies --   3082.9105              3106.9058              3170.1095
 Red. masses --      1.1005                 1.1027                 1.0922
 Frc consts  --      6.1623                 6.2714                 6.4669
 IR Inten    --     14.2212                18.9890                 4.2874
 Raman Activ --     84.5652                82.0660                85.8643

                     79                     80                     81
                      A                      A                      A
 Frequencies --   3190.5612              3238.6052              3408.3812
 Red. masses --      1.0932                 1.0969                 1.0644
 Frc consts  --      6.5566                 6.7785                 7.2856
 IR Inten    --      8.4618                 0.6085              1055.0804
 Raman Activ --    139.2810               154.2997               322.6605

                     82                     83                     84
                      A                      A                      A
 Frequencies --   3640.1544              3650.5966              3687.0750
 Red. masses --      1.0785                 1.0812                 1.0902
 Frc consts  --      8.4201                 8.4897                 8.7320
 IR Inten    --     97.5072                85.7762               125.5788
 Raman Activ --    132.0734               168.6075                56.4520

 Optimization completed.
    -- Stationary point found.
 Normal termination of Gaussian 09 at Fri Oct 28 13:22:26 2016.
