 Gaussian 09, Revision D.01,
 Gaussian 09:  ES64L-G09RevD.01 24-Apr-2013

 -----------------------------
 # opt=(z-matrix) rhf/6-31g(d)
 -----------------------------

 -----------
 Ammonia c3v
 -----------
 Symbolic Z-matrix:
 Charge =  0 Multiplicity = 1

 SCF Done:  E(RHF) =  -56.1786872701     A.U. after   10 cycles
 SCF Done:  E(RHF) =  -56.1788482201     A.U. after    9 cycles
 SCF Done:  E(RHF) =  -56.1788503503     A.U. after    8 cycles
 Optimization completed.
    -- Stationary point found.

                         Standard orientation:
 ---------------------------------------------------------------------
 Center     Atomic      Atomic             Coordinates (Angstroms)
 Number     Number       Type             X           Y           Z
 ---------------------------------------------------------------------
      1          7           0        0.000000    0.000000    0.056811
      2          1           0        0.000000    0.974224   -0.132559
      3          1           0        0.843703   -0.487112   -0.132559
      4          1           0       -0.843703   -0.487112   -0.132559
 ---------------------------------------------------------------------

 The electronic state is 1-A1.
 Alpha  occ. eigenvalues --  -15.52046  -1.12479  -0.64125  -0.64125  -0.39037
 Alpha virt. eigenvalues --    0.22967   0.33010   0.33010   0.92599   0.92599
 Alpha virt. eigenvalues --    0.97150   1.10639   1.25611   1.25611   1.32663
 Alpha virt. eigenvalues --    1.98098   1.98098   2.44774   2.73707   2.73707

 Mulliken charges:
               1
     1  N   -1.055133
     2  H    0.351711
     3  H    0.351711
     4  H    0.351711
 Sum of Mulliken charges =   0.00000

 Dipole moment (field-independent basis, Debye):
    X=              0.0000    Y=              0.0000    Z=             -1.0990  Tot=              1.0990
 Quadrupole moment (field-independent basis, Debye-Ang):
   XX=             -5.6091   YY=             -5.6091   ZZ=             -9.2207
   XY=              0.0000   XZ=              0.0000   YZ=              0.0000

 Normal termination of Gaussian 09 at Fri Sep  2 13:31:57 2016.
