 Gaussian 09, Revision D.01,
 Gaussian 09:  ES64L-G09RevD.01 24-Apr-2013

 -----------------------------
 # opt=(z-matrix) rhf/6-31g(d)
 -----------------------------

 -----------
 Ammonia c3v
 -----------
 Symbolic Z-matrix:
 Charge =  0 Multiplicity = 1

 SCF Done:  E(RHF) =  -56.1753026494     A.U. after   10 cycles
 SCF Done:  E(RHF) =  -56.1756085208     A.U. after    9 cycles
 SCF Done:  E(RHF) =  -56.1756136938     A.U. after    8 cycles
 Optimization completed.
    -- Stationary point found.

                         Standard orientation:
 ---------------------------------------------------------------------
 Center     Atomic      Atomic             Coordinates (Angstroms)
 Number     Number       Type             X           Y           Z
 ---------------------------------------------------------------------
      1          7           0        0.000000    0.000000    0.031034
      2          1           0        0.000000    0.984245   -0.072414
      3          1           0        0.852381   -0.492122   -0.072414
      4          1           0       -0.852381   -0.492122   -0.072414
 ---------------------------------------------------------------------

 The electronic state is 1-A1.
 Alpha  occ. eigenvalues --  -15.51649  -1.12058  -0.64439  -0.64439  -0.38264
 Alpha virt. eigenvalues --    0.23118   0.33138   0.33138   0.93474   0.93474
 Alpha virt. eigenvalues --    0.97313   1.07334   1.26283   1.26283   1.32709
 Alpha virt. eigenvalues --    1.98913   1.98913   2.49377   2.71822   2.71822

 Mulliken charges:
               1
     1  N   -1.073964
     2  H    0.357988
     3  H    0.357988
     4  H    0.357988
 Sum of Mulliken charges =   0.00000

 Dipole moment (field-independent basis, Debye):
    X=              0.0000    Y=              0.0000    Z=             -0.6207  Tot=              0.6207
 Quadrupole moment (field-independent basis, Debye-Ang):
   XX=             -5.4883   YY=             -5.4883   ZZ=             -9.3088
   XY=              0.0000   XZ=              0.0000   YZ=              0.0000

 Normal termination of Gaussian 09 at Fri Sep  2 13:42:06 2016.
