 Gaussian 09, Revision D.01,
 Gaussian 09:  ES64L-G09RevD.01 24-Apr-2013

 -----------------------------
 # opt=(z-matrix) rhf/6-31g(d)
 -----------------------------

 -----------
 Ammonia c3v
 -----------
 Symbolic Z-matrix:
 Charge =  0 Multiplicity = 1

 SCF Done:  E(RHF) =  -56.1788258607     A.U. after   10 cycles
 SCF Done:  E(RHF) =  -56.1791961895     A.U. after    9 cycles
 SCF Done:  E(RHF) =  -56.1791967388     A.U. after    7 cycles
 Optimization completed.
    -- Stationary point found.

                         Standard orientation:
 ---------------------------------------------------------------------
 Center     Atomic      Atomic             Coordinates (Angstroms)
 Number     Number       Type             X           Y           Z
 ---------------------------------------------------------------------
      1          7           0        0.000000    0.000000    0.147172
      2          1           0        0.000000    0.885020   -0.343402
      3          1           0        0.766450   -0.442510   -0.343402
      4          1           0       -0.766450   -0.442510   -0.343402
 ---------------------------------------------------------------------

 The electronic state is 1-A1.
 Alpha  occ. eigenvalues --  -15.54637  -1.15489  -0.61246  -0.61246  -0.44761
 Alpha virt. eigenvalues --    0.21504   0.31904   0.31904   0.87492   0.87492
 Alpha virt. eigenvalues --    0.96848   1.21123   1.21123   1.24205   1.53999
 Alpha virt. eigenvalues --    1.95926   1.95926   2.12998   2.75597   2.75597

 Mulliken charges:
               1
     1  N   -0.952916
     2  H    0.317639
     3  H    0.317639
     4  H    0.317639
 Sum of Mulliken charges =   0.00000

 Dipole moment (field-independent basis, Debye):
    X=              0.0000    Y=              0.0000    Z=             -2.3264  Tot=              2.3264
 Quadrupole moment (field-independent basis, Debye-Ang):
   XX=             -6.4903   YY=             -6.4903   ZZ=             -8.5348
   XY=              0.0000   XZ=              0.0000   YZ=              0.0000

 Normal termination of Gaussian 09 at Fri Sep  2 13:36:55 2016.
