 Gaussian 09, Revision D.01,
 Gaussian 09:  ES64L-G09RevD.01 24-Apr-2013

 -----------------------------
 # opt=(z-matrix) rhf/6-31g(d)
 -----------------------------

 -----------
 Ammonia c3v
 -----------
 Symbolic Z-matrix:
 Charge =  0 Multiplicity = 1

 SCF Done:  E(RHF) =  -56.1794531615     A.U. after   10 cycles
 SCF Done:  E(RHF) =  -56.1795841415     A.U. after    9 cycles
 SCF Done:  E(RHF) =  -56.1795857656     A.U. after    8 cycles
 Optimization completed.
    -- Stationary point found.

                         Standard orientation:
 ---------------------------------------------------------------------
 Center     Atomic      Atomic             Coordinates (Angstroms)
 Number     Number       Type             X           Y           Z
 ---------------------------------------------------------------------
      1          7           0        0.000000    0.000000    0.061948
      2          1           0        0.000000    0.971482   -0.144546
      3          1           0        0.841328   -0.485741   -0.144546
      4          1           0       -0.841328   -0.485741   -0.144546
 ---------------------------------------------------------------------

 The electronic state is 1-A1.
 Alpha  occ. eigenvalues --  -15.52149  -1.12590  -0.64038  -0.64038  -0.39242
 Alpha virt. eigenvalues --    0.22925   0.32976   0.32976   0.92374   0.92374
 Alpha virt. eigenvalues --    0.97125   1.11518   1.25436   1.25436   1.32683
 Alpha virt. eigenvalues --    1.97913   1.97913   2.43577   2.74129   2.74129

 Mulliken charges:
               1
     1  N   -1.050392
     2  H    0.350131
     3  H    0.350131
     4  H    0.350131
 Sum of Mulliken charges =   0.00000

 Dipole moment (field-independent basis, Debye):
    X=              0.0000    Y=              0.0000    Z=             -1.1881  Tot=              1.1881
 Quadrupole moment (field-independent basis, Debye-Ang):
   XX=             -5.6410   YY=             -5.6410   ZZ=             -9.1973
   XY=              0.0000   XZ=              0.0000   YZ=              0.0000

 Normal termination of Gaussian 09 at Fri Sep  2 13:32:14 2016.
