 Gaussian 09, Revision D.01,
 Gaussian 09:  ES64L-G09RevD.01 24-Apr-2013

 -----------------------------
 # opt=(z-matrix) rhf/6-31g(d)
 -----------------------------

 -----------
 Ammonia c3v
 -----------
 Symbolic Z-matrix:
 Charge =  0 Multiplicity = 1

 SCF Done:  E(RHF) =  -56.1737910289     A.U. after   11 cycles
 SCF Done:  E(RHF) =  -56.1741670565     A.U. after    9 cycles
 SCF Done:  E(RHF) =  -56.1741740458     A.U. after    8 cycles
 Optimization completed.
    -- Stationary point found.

                         Standard orientation:
 ---------------------------------------------------------------------
 Center     Atomic      Atomic             Coordinates (Angstroms)
 Number     Number       Type             X           Y           Z
 ---------------------------------------------------------------------
      1          7           0        0.000000    0.000000    0.010350
      2          1           0        0.000000    0.987967   -0.024150
      3          1           0        0.855605   -0.493984   -0.024150
      4          1           0       -0.855605   -0.493984   -0.024150
 ---------------------------------------------------------------------

 The electronic state is 1-A1.
 Alpha  occ. eigenvalues --  -15.51492  -1.11893  -0.64556  -0.64556  -0.37967
 Alpha virt. eigenvalues --    0.23173   0.33187   0.33187   0.93820   0.93820
 Alpha virt. eigenvalues --    0.97427   1.06053   1.26548   1.26548   1.32765
 Alpha virt. eigenvalues --    1.99282   1.99282   2.51192   2.70966   2.70966

 Mulliken charges:
               1
     1  N   -1.081632
     2  H    0.360544
     3  H    0.360544
     4  H    0.360544
 Sum of Mulliken charges =   0.00000

 Dipole moment (field-independent basis, Debye):
    X=              0.0000    Y=              0.0000    Z=             -0.2098  Tot=              0.2098
 Quadrupole moment (field-independent basis, Debye-Ang):
   XX=             -5.4414   YY=             -5.4414   ZZ=             -9.3424
   XY=              0.0000   XZ=              0.0000   YZ=              0.0000

 Normal termination of Gaussian 09 at Fri Sep  2 13:40:54 2016.
