 Gaussian 09, Revision D.01,
 Gaussian 09:  ES64L-G09RevD.01 24-Apr-2013

 -----------------------------
 # opt=(z-matrix) rhf/6-31g(d)
 -----------------------------

 -----------
 Ammonia c3v
 -----------
 Symbolic Z-matrix:
 Charge =  0 Multiplicity = 1

 SCF Done:  E(RHF) =  -56.1834434222     A.U. after   10 cycles
 SCF Done:  E(RHF) =  -56.1834493252     A.U. after    8 cycles
 SCF Done:  E(RHF) =  -56.1834493696     A.U. after    7 cycles
 Optimization completed.
    -- Stationary point found.

                         Standard orientation:
 ---------------------------------------------------------------------
 Center     Atomic      Atomic             Coordinates (Angstroms)
 Number     Number       Type             X           Y           Z
 ---------------------------------------------------------------------
      1          7           0        0.000000    0.000000    0.092569
      2          1           0        0.000000    0.949665   -0.215995
      3          1           0        0.822434   -0.474833   -0.215995
      4          1           0       -0.822434   -0.474833   -0.215995
 ---------------------------------------------------------------------

 The electronic state is 1-A1.
 Alpha  occ. eigenvalues --  -15.52896  -1.13408  -0.63344  -0.63344  -0.40794
 Alpha virt. eigenvalues --    0.22586   0.32708   0.32708   0.90764   0.90764
 Alpha virt. eigenvalues --    0.97033   1.18006   1.24158   1.24158   1.33644
 Alpha virt. eigenvalues --    1.96853   1.96853   2.34795   2.76357   2.76357

 Mulliken charges:
               1
     1  N   -1.017732
     2  H    0.339244
     3  H    0.339244
     4  H    0.339244
 Sum of Mulliken charges =   0.00000

 Dipole moment (field-independent basis, Debye):
    X=              0.0000    Y=              0.0000    Z=             -1.6701  Tot=              1.6701
 Quadrupole moment (field-independent basis, Debye-Ang):
   XX=             -5.8796   YY=             -5.8796   ZZ=             -9.0177
   XY=              0.0000   XZ=              0.0000   YZ=              0.0000

 Normal termination of Gaussian 09 at Fri Sep  2 13:33:57 2016.
