 Gaussian 09, Revision D.01,
 Gaussian 09:  ES64L-G09RevD.01 24-Apr-2013

 -----------------------------
 # opt=(z-matrix) rhf/6-31g(d)
 -----------------------------

 -----------
 Ammonia c3v
 -----------
 Symbolic Z-matrix:
 Charge =  0 Multiplicity = 1

 SCF Done:  E(RHF) =  -56.1726120090     A.U. after   10 cycles
 SCF Done:  E(RHF) =  -56.1733017820     A.U. after    9 cycles
 SCF Done:  E(RHF) =  -56.1733022205     A.U. after    7 cycles
 Optimization completed.
    -- Stationary point found.

                         Standard orientation:
 ---------------------------------------------------------------------
 Center     Atomic      Atomic             Coordinates (Angstroms)
 Number     Number       Type             X           Y           Z
 ---------------------------------------------------------------------
      1          7           0        0.000000    0.000000    0.161577
      2          1           0        0.000000    0.861923   -0.377012
      3          1           0        0.746447   -0.430961   -0.377012
      4          1           0       -0.746447   -0.430961   -0.377012
 ---------------------------------------------------------------------

 The electronic state is 1-A1.
 Alpha  occ. eigenvalues --  -15.55167  -1.16180  -0.60485  -0.60485  -0.46021
 Alpha virt. eigenvalues --    0.21094   0.31596   0.31596   0.86737   0.86737
 Alpha virt. eigenvalues --    0.96743   1.20197   1.20197   1.23685   1.65723
 Alpha virt. eigenvalues --    1.95972   1.95972   2.05906   2.73795   2.73795

 Mulliken charges:
               1
     1  N   -0.935501
     2  H    0.311834
     3  H    0.311834
     4  H    0.311834
 Sum of Mulliken charges =   0.00000

 Dipole moment (field-independent basis, Debye):
    X=              0.0000    Y=              0.0000    Z=             -2.4629  Tot=              2.4629
 Quadrupole moment (field-independent basis, Debye-Ang):
   XX=             -6.6889   YY=             -6.6889   ZZ=             -8.3730
   XY=              0.0000   XZ=              0.0000   YZ=              0.0000

 Normal termination of Gaussian 09 at Fri Sep  2 13:37:48 2016.
