 Gaussian 09, Revision D.01,
 Gaussian 09:  ES64L-G09RevD.01 24-Apr-2013

 -----------------------------
 # opt=(z-matrix) rhf/6-31g(d)
 -----------------------------

 -----------
 Ammonia c3v
 -----------
 Symbolic Z-matrix:
 Charge =  0 Multiplicity = 1

 SCF Done:  E(RHF) =  -56.1843252869     A.U. after   10 cycles
 SCF Done:  E(RHF) =  -56.1843480309     A.U. after    8 cycles
 SCF Done:  E(RHF) =  -56.1843481399     A.U. after    7 cycles
 Optimization completed.
    -- Stationary point found.

                         Standard orientation:
 ---------------------------------------------------------------------
 Center     Atomic      Atomic             Coordinates (Angstroms)
 Number     Number       Type             X           Y           Z
 ---------------------------------------------------------------------
      1          7           0        0.000000    0.000000    0.112708
      2          1           0        0.000000    0.929870   -0.262984
      3          1           0        0.805291   -0.464935   -0.262984
      4          1           0       -0.805291   -0.464935   -0.262984
 ---------------------------------------------------------------------

 The electronic state is 1-A1.
 Alpha  occ. eigenvalues --  -15.53488  -1.14083  -0.62707  -0.62707  -0.42095
 Alpha virt. eigenvalues --    0.22266   0.32468   0.32468   0.89551   0.89551
 Alpha virt. eigenvalues --    0.96991   1.22173   1.23134   1.23134   1.36848
 Alpha virt. eigenvalues --    1.96322   1.96322   2.27649   2.77042   2.77042

 Mulliken charges:
               1
     1  N   -0.994050
     2  H    0.331350
     3  H    0.331350
     4  H    0.331350
 Sum of Mulliken charges =   0.00000

 Dipole moment (field-independent basis, Debye):
    X=              0.0000    Y=              0.0000    Z=             -1.9404  Tot=              1.9404
 Quadrupole moment (field-independent basis, Debye-Ang):
   XX=             -6.0785   YY=             -6.0785   ZZ=             -8.8636
   XY=              0.0000   XZ=              0.0000   YZ=              0.0000

 Normal termination of Gaussian 09 at Fri Sep  2 13:34:54 2016.
