 Gaussian 09, Revision D.01,
 Gaussian 09:  ES64L-G09RevD.01 24-Apr-2013

 -----------------------------
 # opt=(z-matrix) rhf/6-31g(d)
 -----------------------------

 -----------
 Ammonia c3v
 -----------
 Symbolic Z-matrix:
 Charge =  0 Multiplicity = 1

 SCF Done:  E(RHF) =  -56.1740361267     A.U. after   10 cycles
 SCF Done:  E(RHF) =  -56.1744005773     A.U. after    9 cycles
 SCF Done:  E(RHF) =  -56.1744072517     A.U. after    8 cycles
 Optimization completed.
    -- Stationary point found.

                         Standard orientation:
 ---------------------------------------------------------------------
 Center     Atomic      Atomic             Coordinates (Angstroms)
 Number     Number       Type             X           Y           Z
 ---------------------------------------------------------------------
      1          7           0        0.000000    0.000000    0.015524
      2          1           0        0.000000    0.987388   -0.036223
      3          1           0        0.855103   -0.493694   -0.036223
      4          1           0       -0.855103   -0.493694   -0.036223
 ---------------------------------------------------------------------

 The electronic state is 1-A1.
 Alpha  occ. eigenvalues --  -15.51517  -1.11919  -0.64538  -0.64538  -0.38013
 Alpha virt. eigenvalues --    0.23164   0.33179   0.33179   0.93765   0.93765
 Alpha virt. eigenvalues --    0.97406   1.06255   1.26506   1.26506   1.32755
 Alpha virt. eigenvalues --    1.99222   1.99222   2.50905   2.71105   2.71105

 Mulliken charges:
               1
     1  N   -1.080412
     2  H    0.360137
     3  H    0.360137
     4  H    0.360137
 Sum of Mulliken charges =   0.00000

 Dipole moment (field-independent basis, Debye):
    X=              0.0000    Y=              0.0000    Z=             -0.3139  Tot=              0.3139
 Quadrupole moment (field-independent basis, Debye-Ang):
   XX=             -5.4488   YY=             -5.4488   ZZ=             -9.3371
   XY=              0.0000   XZ=              0.0000   YZ=              0.0000

 Normal termination of Gaussian 09 at Fri Sep  2 13:41:12 2016.
