 Gaussian 09, Revision D.01,
 Gaussian 09:  ES64L-G09RevD.01 24-Apr-2013

 -----------------------------
 # opt=(z-matrix) rhf/6-31g(d)
 -----------------------------

 -----------
 Ammonia c3v
 -----------
 Symbolic Z-matrix:
 Charge =  0 Multiplicity = 1

 SCF Done:  E(RHF) =  -56.1843135913     A.U. after   10 cycles
 SCF Done:  E(RHF) =  -56.1843219662     A.U. after    8 cycles
 SCF Done:  E(RHF) =  -56.1843220116     A.U. after    7 cycles
 Optimization completed.
    -- Stationary point found.

                         Standard orientation:
 ---------------------------------------------------------------------
 Center     Atomic      Atomic             Coordinates (Angstroms)
 Number     Number       Type             X           Y           Z
 ---------------------------------------------------------------------
      1          7           0        0.000000    0.000000    0.107699
      2          1           0        0.000000    0.935218   -0.251298
      3          1           0        0.809922   -0.467609   -0.251298
      4          1           0       -0.809922   -0.467609   -0.251298
 ---------------------------------------------------------------------

 The electronic state is 1-A1.
 Alpha  occ. eigenvalues --  -15.53334  -1.13905  -0.62880  -0.62880  -0.41753
 Alpha virt. eigenvalues --    0.22353   0.32533   0.32533   0.89858   0.89858
 Alpha virt. eigenvalues --    0.97003   1.21290   1.23400   1.23400   1.35676
 Alpha virt. eigenvalues --    1.96436   1.96436   2.29522   2.76958   2.76958

 Mulliken charges:
               1
     1  N   -1.000005
     2  H    0.333335
     3  H    0.333335
     4  H    0.333335
 Sum of Mulliken charges =   0.00000

 Dipole moment (field-independent basis, Debye):
    X=              0.0000    Y=              0.0000    Z=             -1.8765  Tot=              1.8765
 Quadrupole moment (field-independent basis, Debye-Ang):
   XX=             -6.0261   YY=             -6.0261   ZZ=             -8.9045
   XY=              0.0000   XZ=              0.0000   YZ=              0.0000

 Normal termination of Gaussian 09 at Fri Sep  2 13:34:38 2016.
