 Gaussian 09, Revision D.01,
 Gaussian 09:  ES64L-G09RevD.01 24-Apr-2013

 -----------------------------
 # opt=(z-matrix) rhf/6-31g(d)
 -----------------------------

 -----------
 Ammonia c3v
 -----------
 Symbolic Z-matrix:
 Charge =  0 Multiplicity = 1

 SCF Done:  E(RHF) =  -56.1460836506     A.U. after   10 cycles
 SCF Done:  E(RHF) =  -56.1481546172     A.U. after    9 cycles
 SCF Done:  E(RHF) =  -56.1481547036     A.U. after    7 cycles
 Optimization completed.
    -- Stationary point found.

                         Standard orientation:
 ---------------------------------------------------------------------
 Center     Atomic      Atomic             Coordinates (Angstroms)
 Number     Number       Type             X           Y           Z
 ---------------------------------------------------------------------
      1          7           0        0.000000    0.000000    0.194263
      2          1           0        0.000000    0.799650   -0.453280
      3          1           0        0.692517   -0.399825   -0.453280
      4          1           0       -0.692517   -0.399825   -0.453280
 ---------------------------------------------------------------------

 The electronic state is 1-A1.
 Alpha  occ. eigenvalues --  -15.56503  -1.18018  -0.58406  -0.58406  -0.49170
 Alpha virt. eigenvalues --    0.19930   0.30684   0.30684   0.85532   0.85532
 Alpha virt. eigenvalues --    0.96394   1.17919   1.17919   1.20971   1.84137
 Alpha virt. eigenvalues --    1.96527   1.96527   2.05246   2.67037   2.67037

 Mulliken charges:
               1
     1  N   -0.891435
     2  H    0.297145
     3  H    0.297145
     4  H    0.297145
 Sum of Mulliken charges =   0.00000

 Dipole moment (field-independent basis, Debye):
    X=              0.0000    Y=              0.0000    Z=             -2.7228  Tot=              2.7228
 Quadrupole moment (field-independent basis, Debye-Ang):
   XX=             -7.1987   YY=             -7.1987   ZZ=             -7.9523
   XY=              0.0000   XZ=              0.0000   YZ=              0.0000

 Normal termination of Gaussian 09 at Fri Sep  2 13:39:43 2016.
