 Gaussian 09, Revision D.01,
 Gaussian 09:  ES64L-G09RevD.01 24-Apr-2013

 -----------------------------
 # opt=(z-matrix) rhf/6-31g(d)
 -----------------------------

 -----------
 Ammonia c3v
 -----------
 Symbolic Z-matrix:
 Charge =  0 Multiplicity = 1

 SCF Done:  E(RHF) =  -56.1815536886     A.U. after   10 cycles
 SCF Done:  E(RHF) =  -56.1817744676     A.U. after    9 cycles
 SCF Done:  E(RHF) =  -56.1817749618     A.U. after    7 cycles
 Optimization completed.
    -- Stationary point found.

                         Standard orientation:
 ---------------------------------------------------------------------
 Center     Atomic      Atomic             Coordinates (Angstroms)
 Number     Number       Type             X           Y           Z
 ---------------------------------------------------------------------
      1          7           0        0.000000    0.000000    0.137441
      2          1           0        0.000000    0.899145   -0.320696
      3          1           0        0.778683   -0.449573   -0.320696
      4          1           0       -0.778683   -0.449573   -0.320696
 ---------------------------------------------------------------------

 The electronic state is 1-A1.
 Alpha  occ. eigenvalues --  -15.54296  -1.15058  -0.61709  -0.61709  -0.43957
 Alpha virt. eigenvalues --    0.21749   0.32086   0.32086   0.88050   0.88050
 Alpha virt. eigenvalues --    0.96902   1.21721   1.21721   1.24222   1.47560
 Alpha virt. eigenvalues --    1.95966   1.95966   2.17460   2.76398   2.76398

 Mulliken charges:
               1
     1  N   -0.964536
     2  H    0.321512
     3  H    0.321512
     4  H    0.321512
 Sum of Mulliken charges =   0.00000

 Dipole moment (field-independent basis, Debye):
    X=              0.0000    Y=              0.0000    Z=             -2.2263  Tot=              2.2263
 Quadrupole moment (field-independent basis, Debye-Ang):
   XX=             -6.3650   YY=             -6.3650   ZZ=             -8.6360
   XY=              0.0000   XZ=              0.0000   YZ=              0.0000

 Normal termination of Gaussian 09 at Fri Sep  2 13:36:19 2016.
