 Gaussian 09, Revision D.01,
 Gaussian 09:  ES64L-G09RevD.01 24-Apr-2013

 -----------------------------
 # opt=(z-matrix) rhf/6-31g(d)
 -----------------------------

 -----------
 Ammonia c3v
 -----------
 Symbolic Z-matrix:
 Charge =  0 Multiplicity = 1

 SCF Done:  E(RHF) =  -56.1699142493     A.U. after   10 cycles
 SCF Done:  E(RHF) =  -56.1707402033     A.U. after    9 cycles
 SCF Done:  E(RHF) =  -56.1707405586     A.U. after    7 cycles
 Optimization completed.
    -- Stationary point found.

                         Standard orientation:
 ---------------------------------------------------------------------
 Center     Atomic      Atomic             Coordinates (Angstroms)
 Number     Number       Type             X           Y           Z
 ---------------------------------------------------------------------
      1          7           0        0.000000    0.000000    0.166325
      2          1           0        0.000000    0.853728   -0.388092
      3          1           0        0.739350   -0.426864   -0.388092
      4          1           0       -0.739350   -0.426864   -0.388092
 ---------------------------------------------------------------------

 The electronic state is 1-A1.
 Alpha  occ. eigenvalues --  -15.55348  -1.16423  -0.60214  -0.60214  -0.46454
 Alpha virt. eigenvalues --    0.20946   0.31483   0.31483   0.86512   0.86512
 Alpha virt. eigenvalues --    0.96701   1.19882   1.19882   1.23412   1.70137
 Alpha virt. eigenvalues --    1.96015   1.96015   2.03462   2.73038   2.73038

 Mulliken charges:
               1
     1  N   -0.929624
     2  H    0.309875
     3  H    0.309875
     4  H    0.309875
 Sum of Mulliken charges =   0.00000

 Dipole moment (field-independent basis, Debye):
    X=              0.0000    Y=              0.0000    Z=             -2.5050  Tot=              2.5050
 Quadrupole moment (field-independent basis, Debye-Ang):
   XX=             -6.7579   YY=             -6.7579   ZZ=             -8.3165
   XY=              0.0000   XZ=              0.0000   YZ=              0.0000

 Normal termination of Gaussian 09 at Fri Sep  2 13:38:06 2016.
