 Gaussian 09, Revision D.01,
 Gaussian 09:  ES64L-G09RevD.01 24-Apr-2013

 -----------------------------
 # opt=(z-matrix) rhf/6-31g(d)
 -----------------------------

 -----------
 Ammonia c3v
 -----------
 Symbolic Z-matrix:
 Charge =  0 Multiplicity = 1

 SCF Done:  E(RHF) =  -56.1634883769     A.U. after   10 cycles
 SCF Done:  E(RHF) =  -56.1646397220     A.U. after    9 cycles
 SCF Done:  E(RHF) =  -56.1646398806     A.U. after    7 cycles
 Optimization completed.
    -- Stationary point found.

                         Standard orientation:
 ---------------------------------------------------------------------
 Center     Atomic      Atomic             Coordinates (Angstroms)
 Number     Number       Type             X           Y           Z
 ---------------------------------------------------------------------
      1          7           0        0.000000    0.000000    0.175742
      2          1           0        0.000000    0.836617   -0.410064
      3          1           0        0.724532   -0.418309   -0.410064
      4          1           0       -0.724532   -0.418309   -0.410064
 ---------------------------------------------------------------------

 The electronic state is 1-A1.
 Alpha  occ. eigenvalues --  -15.55720  -1.16928  -0.59646  -0.59646  -0.47337
 Alpha virt. eigenvalues --    0.20632   0.31240   0.31240   0.86110   0.86110
 Alpha virt. eigenvalues --    0.96609   1.19240   1.19240   1.22744   1.79458
 Alpha virt. eigenvalues --    1.96139   1.96139   1.98695   2.71303   2.71303

 Mulliken charges:
               1
     1  N   -0.917600
     2  H    0.305867
     3  H    0.305867
     4  H    0.305867
 Sum of Mulliken charges =   0.00000

 Dipole moment (field-independent basis, Debye):
    X=              0.0000    Y=              0.0000    Z=             -2.5841  Tot=              2.5841
 Quadrupole moment (field-independent basis, Debye-Ang):
   XX=             -6.8998   YY=             -6.8998   ZZ=             -8.1998
   XY=              0.0000   XZ=              0.0000   YZ=              0.0000

 Normal termination of Gaussian 09 at Fri Sep  2 13:38:41 2016.
