 Gaussian 09, Revision D.01,
 Gaussian 09:  ES64L-G09RevD.01 24-Apr-2013

 -----------------------------
 # opt=(z-matrix) rhf/6-31g(d)
 -----------------------------

 -----------
 Ammonia c3v
 -----------
 Symbolic Z-matrix:
 Charge =  0 Multiplicity = 1

 SCF Done:  E(RHF) =  -56.1809619025     A.U. after   10 cycles
 SCF Done:  E(RHF) =  -56.1810379137     A.U. after    9 cycles
 SCF Done:  E(RHF) =  -56.1810387282     A.U. after    8 cycles
 Optimization completed.
    -- Stationary point found.

                         Standard orientation:
 ---------------------------------------------------------------------
 Center     Atomic      Atomic             Coordinates (Angstroms)
 Number     Number       Type             X           Y           Z
 ---------------------------------------------------------------------
      1          7           0        0.000000    0.000000    0.072199
      2          1           0        0.000000    0.965242   -0.168463
      3          1           0        0.835924   -0.482621   -0.168463
      4          1           0       -0.835924   -0.482621   -0.168463
 ---------------------------------------------------------------------

 The electronic state is 1-A1.
 Alpha  occ. eigenvalues --  -15.52375  -1.12834  -0.63841  -0.63841  -0.39701
 Alpha virt. eigenvalues --    0.22830   0.32899   0.32899   0.91880   0.91880
 Alpha virt. eigenvalues --    0.97085   1.13479   1.25051   1.25051   1.32792
 Alpha virt. eigenvalues --    1.97542   1.97542   2.40940   2.74959   2.74959

 Mulliken charges:
               1
     1  N   -1.040183
     2  H    0.346728
     3  H    0.346728
     4  H    0.346728
 Sum of Mulliken charges =   0.00000

 Dipole moment (field-independent basis, Debye):
    X=              0.0000    Y=              0.0000    Z=             -1.3591  Tot=              1.3591
 Quadrupole moment (field-independent basis, Debye-Ang):
   XX=             -5.7118   YY=             -5.7118   ZZ=             -9.1446
   XY=              0.0000   XZ=              0.0000   YZ=              0.0000

 Normal termination of Gaussian 09 at Fri Sep  2 13:32:49 2016.
