 Gaussian 09, Revision D.01,
 Gaussian 09:  ES64L-G09RevD.01 24-Apr-2013

 -----------------------------
 # opt=(z-matrix) rhf/6-31g(d)
 -----------------------------

 -----------
 Ammonia c3v
 -----------
 Symbolic Z-matrix:
 Charge =  0 Multiplicity = 1

 SCF Done:  E(RHF) =  -56.1749864742     A.U. after   10 cycles
 SCF Done:  E(RHF) =  -56.1755557341     A.U. after    9 cycles
 SCF Done:  E(RHF) =  -56.1755562350     A.U. after    7 cycles
 Optimization completed.
    -- Stationary point found.

                         Standard orientation:
 ---------------------------------------------------------------------
 Center     Atomic      Atomic             Coordinates (Angstroms)
 Number     Number       Type             X           Y           Z
 ---------------------------------------------------------------------
      1          7           0        0.000000    0.000000    0.156802
      2          1           0        0.000000    0.869872   -0.365870
      3          1           0        0.753331   -0.434936   -0.365870
      4          1           0       -0.753331   -0.434936   -0.365870
 ---------------------------------------------------------------------

 The electronic state is 1-A1.
 Alpha  occ. eigenvalues --  -15.54988  -1.15943  -0.60748  -0.60748  -0.45595
 Alpha virt. eigenvalues --    0.21236   0.31703   0.31703   0.86976   0.86976
 Alpha virt. eigenvalues --    0.96781   1.20509   1.20509   1.23912   1.61551
 Alpha virt. eigenvalues --    1.95943   1.95943   2.08318   2.74474   2.74474

 Mulliken charges:
               1
     1  N   -0.941327
     2  H    0.313776
     3  H    0.313776
     4  H    0.313776
 Sum of Mulliken charges =   0.00000

 Dipole moment (field-independent basis, Debye):
    X=              0.0000    Y=              0.0000    Z=             -2.4191  Tot=              2.4191
 Quadrupole moment (field-independent basis, Debye-Ang):
   XX=             -6.6213   YY=             -6.6213   ZZ=             -8.4283
   XY=              0.0000   XZ=              0.0000   YZ=              0.0000

 Normal termination of Gaussian 09 at Fri Sep  2 13:37:30 2016.
