 Gaussian 09, Revision D.01,
 Gaussian 09:  ES64L-G09RevD.01 24-Apr-2013

 -----------------------------
 # opt=(z-matrix) rhf/6-31g(d)
 -----------------------------

 -----------
 Ammonia c3v
 -----------
 Symbolic Z-matrix:
 Charge =  0 Multiplicity = 1

 SCF Done:  E(RHF) =  -56.1747981830     A.U. after   10 cycles
 SCF Done:  E(RHF) =  -56.1751271318     A.U. after    9 cycles
 SCF Done:  E(RHF) =  -56.1751328779     A.U. after    8 cycles
 Optimization completed.
    -- Stationary point found.

                         Standard orientation:
 ---------------------------------------------------------------------
 Center     Atomic      Atomic             Coordinates (Angstroms)
 Number     Number       Type             X           Y           Z
 ---------------------------------------------------------------------
      1          7           0        0.000000    0.000000    0.025867
      2          1           0        0.000000    0.985528   -0.060356
      3          1           0        0.853492   -0.492764   -0.060356
      4          1           0       -0.853492   -0.492764   -0.060356
 ---------------------------------------------------------------------

 The electronic state is 1-A1.
 Alpha  occ. eigenvalues --  -15.51595  -1.12002  -0.64480  -0.64480  -0.38162
 Alpha virt. eigenvalues --    0.23137   0.33155   0.33155   0.93591   0.93591
 Alpha virt. eigenvalues --    0.97347   1.06897   1.26373   1.26373   1.32726
 Alpha virt. eigenvalues --    1.99035   1.99035   2.49995   2.71537   2.71537

 Mulliken charges:
               1
     1  N   -1.076562
     2  H    0.358854
     3  H    0.358854
     4  H    0.358854
 Sum of Mulliken charges =   0.00000

 Dipole moment (field-independent basis, Debye):
    X=              0.0000    Y=              0.0000    Z=             -0.5197  Tot=              0.5197
 Quadrupole moment (field-independent basis, Debye-Ang):
   XX=             -5.4722   YY=             -5.4722   ZZ=             -9.3203
   XY=              0.0000   XZ=              0.0000   YZ=              0.0000

 Normal termination of Gaussian 09 at Fri Sep  2 13:41:48 2016.
