 Gaussian 09, Revision D.01,
 Gaussian 09:  ES64L-G09RevD.01 24-Apr-2013

 -----------------------------
 # opt=(z-matrix) rhf/6-31g(d)
 -----------------------------

 -----------
 Ammonia c3v
 -----------
 Symbolic Z-matrix:
 Charge =  0 Multiplicity = 1

 SCF Done:  E(RHF) =  -56.1597297647     A.U. after   10 cycles
 SCF Done:  E(RHF) =  -56.1610739148     A.U. after    9 cycles
 SCF Done:  E(RHF) =  -56.1610739846     A.U. after    7 cycles
 Optimization completed.
    -- Stationary point found.

                         Standard orientation:
 ---------------------------------------------------------------------
 Center     Atomic      Atomic             Coordinates (Angstroms)
 Number     Number       Type             X           Y           Z
 ---------------------------------------------------------------------
      1          7           0        0.000000    0.000000    0.180410
      2          1           0        0.000000    0.827711   -0.420957
      3          1           0        0.716819   -0.413856   -0.420957
      4          1           0       -0.716819   -0.413856   -0.420957
 ---------------------------------------------------------------------

 The electronic state is 1-A1.
 Alpha  occ. eigenvalues --  -15.55910  -1.17191  -0.59348  -0.59348  -0.47787
 Alpha virt. eigenvalues --    0.20466   0.31111   0.31111   0.85936   0.85936
 Alpha virt. eigenvalues --    0.96559   1.18915   1.18915   1.22354   1.83889
 Alpha virt. eigenvalues --    1.96219   1.96219   1.96831   2.70331   2.70331

 Mulliken charges:
               1
     1  N   -0.911385
     2  H    0.303795
     3  H    0.303795
     4  H    0.303795
 Sum of Mulliken charges =   0.00000

 Dipole moment (field-independent basis, Debye):
    X=              0.0000    Y=              0.0000    Z=             -2.6213  Tot=              2.6213
 Quadrupole moment (field-independent basis, Debye-Ang):
   XX=             -6.9727   YY=             -6.9727   ZZ=             -8.1397
   XY=              0.0000   XZ=              0.0000   YZ=              0.0000

 Normal termination of Gaussian 09 at Fri Sep  2 13:38:59 2016.
