 Gaussian 09, Revision D.01,
 Gaussian 09:  ES64L-G09RevD.01 24-Apr-2013

 -----------------------------
 # opt=(z-matrix) rhf/6-31g(d)
 -----------------------------

 -----------
 Ammonia c3v
 -----------
 Symbolic Z-matrix:
 Charge =  0 Multiplicity = 1

 SCF Done:  E(RHF) =  -56.1743736814     A.U. after   10 cycles
 SCF Done:  E(RHF) =  -56.1747223132     A.U. after    9 cycles
 SCF Done:  E(RHF) =  -56.1747285669     A.U. after    9 cycles
 Optimization completed.
    -- Stationary point found.

                         Standard orientation:
 ---------------------------------------------------------------------
 Center     Atomic      Atomic             Coordinates (Angstroms)
 Number     Number       Type             X           Y           Z
 ---------------------------------------------------------------------
      1          7           0        0.000000    0.000000    0.020696
      2          1           0        0.000000    0.986575   -0.048292
      3          1           0        0.854399   -0.493287   -0.048292
      4          1           0       -0.854399   -0.493287   -0.048292
 ---------------------------------------------------------------------

 The electronic state is 1-A1.
 Alpha  occ. eigenvalues --  -15.51551  -1.11955  -0.64512  -0.64512  -0.38078
 Alpha virt. eigenvalues --    0.23152   0.33168   0.33168   0.93689   0.93689
 Alpha virt. eigenvalues --    0.97379   1.06537   1.26448   1.26448   1.32742
 Alpha virt. eigenvalues --    1.99139   1.99139   2.50505   2.71297   2.71297

 Mulliken charges:
               1
     1  N   -1.078717
     2  H    0.359572
     3  H    0.359572
     4  H    0.359572
 Sum of Mulliken charges =   0.00000

 Dipole moment (field-independent basis, Debye):
    X=              0.0000    Y=              0.0000    Z=             -0.4173  Tot=              0.4173
 Quadrupole moment (field-independent basis, Debye-Ang):
   XX=             -5.4591   YY=             -5.4591   ZZ=             -9.3298
   XY=              0.0000   XZ=              0.0000   YZ=              0.0000

 Normal termination of Gaussian 09 at Fri Sep  2 13:41:30 2016.
