 Gaussian 09, Revision D.01,
 Gaussian 09:  ES64L-G09RevD.01 24-Apr-2013

 -----------------------------
 # opt=(z-matrix) rhf/6-31g(d)
 -----------------------------

 -----------
 Ammonia c3v
 -----------
 Symbolic Z-matrix:
 Charge =  0 Multiplicity = 1

 SCF Done:  E(RHF) =  -56.1779334389     A.U. after   10 cycles
 SCF Done:  E(RHF) =  -56.1781250162     A.U. after    9 cycles
 SCF Done:  E(RHF) =  -56.1781277082     A.U. after    8 cycles
 Optimization completed.
    -- Stationary point found.

                         Standard orientation:
 ---------------------------------------------------------------------
 Center     Atomic      Atomic             Coordinates (Angstroms)
 Number     Number       Type             X           Y           Z
 ---------------------------------------------------------------------
      1          7           0        0.000000    0.000000    0.051666
      2          1           0        0.000000    0.976716   -0.120555
      3          1           0        0.845861   -0.488358   -0.120555
      4          1           0       -0.845861   -0.488358   -0.120555
 ---------------------------------------------------------------------

 The electronic state is 1-A1.
 Alpha  occ. eigenvalues --  -15.51950  -1.12377  -0.64203  -0.64203  -0.38848
 Alpha virt. eigenvalues --    0.23005   0.33042   0.33042   0.92809   0.92809
 Alpha virt. eigenvalues --    0.97178   1.09832   1.25773   1.25773   1.32659
 Alpha virt. eigenvalues --    1.98279   1.98279   2.45884   2.73290   2.73290

 Mulliken charges:
               1
     1  N   -1.059588
     2  H    0.353196
     3  H    0.353196
     4  H    0.353196
 Sum of Mulliken charges =   0.00000

 Dipole moment (field-independent basis, Debye):
    X=              0.0000    Y=              0.0000    Z=             -1.0075  Tot=              1.0075
 Quadrupole moment (field-independent basis, Debye-Ang):
   XX=             -5.5797   YY=             -5.5797   ZZ=             -9.2423
   XY=              0.0000   XZ=              0.0000   YZ=              0.0000

 Normal termination of Gaussian 09 at Fri Sep  2 13:31:39 2016.
