 Gaussian 09, Revision D.01,
 Gaussian 09:  ES64L-G09RevD.01 24-Apr-2013

 ---------------------------------------
 # opt=(z-matrix,ts,calcfc) rhf/6-31g(d)
 ---------------------------------------

 -----------
 Ammonia c3v
 -----------
 Symbolic Z-matrix:
 Charge =  0 Multiplicity = 1

 SCF Done:  E(RHF) =  -56.1736654434     A.U. after   11 cycles

  Exact polarizability:   0.000   0.000   0.000   0.000   0.000   0.000
 Approx polarizability:   6.798   0.000   6.798   0.000   0.000   3.343

 SCF Done:  E(RHF) =  -56.1739847011     A.U. after    9 cycles
 SCF Done:  E(RHF) =  -56.1739852507     A.U. after    8 cycles
 Optimization completed.
    -- Stationary point found.

                         Standard orientation:
 ---------------------------------------------------------------------
 Center     Atomic      Atomic             Coordinates (Angstroms)
 Number     Number       Type             X           Y           Z
 ---------------------------------------------------------------------
      1          7           0        0.000000    0.000000    0.000010
      2          1           0        0.000000    0.988457   -0.000023
      3          1           0       -0.856029   -0.494228   -0.000023
      4          1           0        0.856029   -0.494228   -0.000023
 ---------------------------------------------------------------------

 The electronic state is 1-A1.
 Alpha  occ. eigenvalues --  -15.51473  -1.11870  -0.64569  -0.64569  -0.37929
 Alpha virt. eigenvalues --    0.23179   0.33192   0.33192   0.93864   0.93864
 Alpha virt. eigenvalues --    0.97444   1.05888   1.26579   1.26579   1.32772
 Alpha virt. eigenvalues --    1.99332   1.99332   2.51419   2.70849   2.70849

 Mulliken charges:
               1
     1  N   -1.082616
     2  H    0.360872
     3  H    0.360872
     4  H    0.360872
 Sum of Mulliken charges =   0.00000

 Dipole moment (field-independent basis, Debye):
    X=              0.0000    Y=              0.0000    Z=             -0.0002  Tot=              0.0002
 Quadrupole moment (field-independent basis, Debye-Ang):
   XX=             -5.4355   YY=             -5.4355   ZZ=             -9.3468
   XY=              0.0000   XZ=              0.0000   YZ=              0.0000

 Normal termination of Gaussian 09 at Fri Sep  2 15:00:29 2016.
