 Gaussian 09, Revision D.01,
 Gaussian 09:  ES64L-G09RevD.01 24-Apr-2013

 -----------------------------
 # opt=(z-matrix) rhf/6-31g(d)
 -----------------------------

 -----------
 Ammonia c3v
 -----------
 Symbolic Z-matrix:
 Charge =  0 Multiplicity = 1

 SCF Done:  E(RHF) =  -56.1770527217     A.U. after   10 cycles
 SCF Done:  E(RHF) =  -56.1775158698     A.U. after    9 cycles
 SCF Done:  E(RHF) =  -56.1775164082     A.U. after    7 cycles
 Optimization completed.
    -- Stationary point found.

                         Standard orientation:
 ---------------------------------------------------------------------
 Center     Atomic      Atomic             Coordinates (Angstroms)
 Number     Number       Type             X           Y           Z
 ---------------------------------------------------------------------
      1          7           0        0.000000    0.000000    0.152000
      2          1           0        0.000000    0.877572   -0.354667
      3          1           0        0.760000   -0.438786   -0.354667
      4          1           0       -0.760000   -0.438786   -0.354667
 ---------------------------------------------------------------------

 The electronic state is 1-A1.
 Alpha  occ. eigenvalues --  -15.54811  -1.15713  -0.61001  -0.61001  -0.45175
 Alpha virt. eigenvalues --    0.21373   0.31806   0.31806   0.87228   0.87228
 Alpha virt. eigenvalues --    0.96816   1.20818   1.20818   1.24088   1.57640
 Alpha virt. eigenvalues --    1.95927   1.95927   2.10684   2.75075   2.75075

 Mulliken charges:
               1
     1  N   -0.947125
     2  H    0.315708
     3  H    0.315708
     4  H    0.315708
 Sum of Mulliken charges =   0.00000

 Dipole moment (field-independent basis, Debye):
    X=              0.0000    Y=              0.0000    Z=             -2.3736  Tot=              2.3736
 Quadrupole moment (field-independent basis, Debye-Ang):
   XX=             -6.5551   YY=             -6.5551   ZZ=             -8.4822
   XY=              0.0000   XZ=              0.0000   YZ=              0.0000

 Normal termination of Gaussian 09 at Fri Sep  2 13:37:12 2016.
