 Gaussian 09, Revision D.01,
 Gaussian 09:  ES64L-G09RevD.01 24-Apr-2013

 -----------------------------
 # opt=(z-matrix) rhf/6-31g(d)
 -----------------------------

 -----------
 Ammonia c3v
 -----------
 Symbolic Z-matrix:
 Charge =  0 Multiplicity = 1

 SCF Done:  E(RHF) =  -56.1802164667     A.U. after   10 cycles
 SCF Done:  E(RHF) =  -56.1803188866     A.U. after    9 cycles
 SCF Done:  E(RHF) =  -56.1803200702     A.U. after    8 cycles
 Optimization completed.
    -- Stationary point found.

                         Standard orientation:
 ---------------------------------------------------------------------
 Center     Atomic      Atomic             Coordinates (Angstroms)
 Number     Number       Type             X           Y           Z
 ---------------------------------------------------------------------
      1          7           0        0.000000    0.000000    0.067078
      2          1           0        0.000000    0.968489   -0.156515
      3          1           0        0.838736   -0.484245   -0.156515
      4          1           0       -0.838736   -0.484245   -0.156515
 ---------------------------------------------------------------------

 The electronic state is 1-A1.
 Alpha  occ. eigenvalues --  -15.52259  -1.12708  -0.63944  -0.63944  -0.39463
 Alpha virt. eigenvalues --    0.22880   0.32939   0.32939   0.92134   0.92134
 Alpha virt. eigenvalues --    0.97103   1.12465   1.25249   1.25249   1.32723
 Alpha virt. eigenvalues --    1.97727   1.97727   2.42298   2.74549   2.74549

 Mulliken charges:
               1
     1  N   -1.045398
     2  H    0.348466
     3  H    0.348466
     4  H    0.348466
 Sum of Mulliken charges =   0.00000

 Dipole moment (field-independent basis, Debye):
    X=              0.0000    Y=              0.0000    Z=             -1.2749  Tot=              1.2749
 Quadrupole moment (field-independent basis, Debye-Ang):
   XX=             -5.6752   YY=             -5.6752   ZZ=             -9.1719
   XY=              0.0000   XZ=              0.0000   YZ=              0.0000

 Normal termination of Gaussian 09 at Fri Sep  2 13:32:31 2016.
