 Gaussian 09, Revision D.01,
 Gaussian 09:  ES64L-G09RevD.01 24-Apr-2013

 -----------------------------
 # opt=(z-matrix) rhf/6-31g(d)
 -----------------------------

 -----------
 Ammonia c3v
 -----------
 Symbolic Z-matrix:
 Charge =  0 Multiplicity = 1

 SCF Done:  E(RHF) =  -56.1841515425     A.U. after   10 cycles
 SCF Done:  E(RHF) =  -56.1841526827     A.U. after    8 cycles
 Optimization completed.
    -- Stationary point found.

                         Standard orientation:
 ---------------------------------------------------------------------
 Center     Atomic      Atomic             Coordinates (Angstroms)
 Number     Number       Type             X           Y           Z
 ---------------------------------------------------------------------
      1          7           0        0.000000    0.000000    0.102677
      2          1           0        0.000000    0.940347   -0.239581
      3          1           0        0.814364   -0.470173   -0.239581
      4          1           0       -0.814364   -0.470173   -0.239581
 ---------------------------------------------------------------------

 The electronic state is 1-A1.
 Alpha  occ. eigenvalues --  -15.53186  -1.13731  -0.63041  -0.63041  -0.41421
 Alpha virt. eigenvalues --    0.22435   0.32593   0.32593   0.90165   0.90165
 Alpha virt. eigenvalues --    0.97013   1.20267   1.23656   1.23656   1.34782
 Alpha virt. eigenvalues --    1.96564   1.96564   2.31334   2.76805   2.76805

 Mulliken charges:
               1
     1  N   -1.005943
     2  H    0.335314
     3  H    0.335314
     4  H    0.335314
 Sum of Mulliken charges =   0.00000

 Dipole moment (field-independent basis, Debye):
    X=              0.0000    Y=              0.0000    Z=             -1.8102  Tot=              1.8102
 Quadrupole moment (field-independent basis, Debye-Ang):
   XX=             -5.9755   YY=             -5.9755   ZZ=             -8.9441
   XY=              0.0000   XZ=              0.0000   YZ=              0.0000

 Normal termination of Gaussian 09 at Fri Sep  2 13:34:21 2016.
