 Gaussian 09, Revision D.01,
 Gaussian 09:  ES64L-G09RevD.01 24-Apr-2013

 ----------------------------------
 # opt=(z-matrix) freq rhf/6-31g(d)
 ----------------------------------

 -----------
 Ammonia c3v
 -----------
 Symbolic Z-matrix:
 Charge =  0 Multiplicity = 1

 SCF Done:  E(RHF) =  -56.1841515425     A.U. after   10 cycles
 SCF Done:  E(RHF) =  -56.1843467339     A.U. after    9 cycles
 SCF Done:  E(RHF) =  -56.1843562187     A.U. after    8 cycles
 SCF Done:  E(RHF) =  -56.1843563387     A.U. after    7 cycles
 Optimization completed.
    -- Stationary point found.
 Normal termination of Gaussian 09 at Fri Sep  2 15:10:00 2016.

 -----------------------------------------------------------------
 #N Geom=AllCheck Guess=TCheck SCRF=Check GenChk RHF/6-31G(d) Freq
 -----------------------------------------------------------------

 Structure from the checkpoint file:  "ammonia-c3v.chk"
 -----------
 Ammonia c3v
 -----------
 Charge =  0 Multiplicity = 1

                         Standard orientation:
 ---------------------------------------------------------------------
 Center     Atomic      Atomic             Coordinates (Angstroms)
 Number     Number       Type             X           Y           Z
 ---------------------------------------------------------------------
      1          7           0        0.000000    0.000000    0.111112
      2          1           0        0.000000    0.931583   -0.259261
      3          1           0        0.806775   -0.465791   -0.259261
      4          1           0       -0.806775   -0.465791   -0.259261
 ---------------------------------------------------------------------

 SCF Done:  E(RHF) =  -56.1843563387     A.U. after    1 cycles

 The electronic state is 1-A1.
 Alpha  occ. eigenvalues --  -15.53438  -1.14027  -0.62764  -0.62764  -0.41985
 Alpha virt. eigenvalues --    0.22295   0.32489   0.32489   0.89649   0.89649
 Alpha virt. eigenvalues --    0.96995   1.21911   1.23222   1.23222   1.36442
 Alpha virt. eigenvalues --    1.96357   1.96357   2.28253   2.77026   2.77026

 Mulliken charges:
               1
     1  N   -0.995951
     2  H    0.331984
     3  H    0.331984
     4  H    0.331984
 Sum of Mulliken charges =   0.00000

 Dipole moment (field-independent basis, Debye):
    X=              0.0000    Y=              0.0000    Z=             -1.9203  Tot=              1.9203
 Quadrupole moment (field-independent basis, Debye-Ang):
   XX=             -6.0616   YY=             -6.0616   ZZ=             -8.8767
   XY=              0.0000   XZ=              0.0000   YZ=              0.0000

  Exact polarizability:   8.969   0.000   8.969   0.000   0.000   5.256
 Approx polarizability:   7.078   0.000   7.078   0.000   0.000   4.258

                      1                      2                      3
                     A1                      E                      E
 Frequencies --   1209.1382              1849.5032              1849.5032
 Red. masses --      1.1805                 1.0661                 1.0661
 Frc consts  --      1.0168                 2.1487                 2.1487
 IR Inten    --    218.1984                21.3277                21.3277
 Raman Activ --      8.8026                10.5736                10.5736

                      4                      5                      6
                     A1                      E                      E
 Frequencies --   3689.5991              3822.5997              3822.5997
 Red. masses --      1.0269                 1.0908                 1.0908
 Frc consts  --      8.2362                 9.3914                 9.3914
 IR Inten    --      0.3191                 0.4664                 0.4664
 Raman Activ --    116.1350                59.2412                59.2412

 - Thermochemistry -
 -------------------
 Temperature   298.150 Kelvin.  Pressure   1.00000 Atm.
 Atom     1 has atomic number  7 and mass  14.00307

 Molecular mass:    17.02655 amu.
 Principal axes and moments of inertia in atomic units:
                           1         2         3
     Eigenvalues --     5.90317   5.90317   9.37016
           X            0.70812   0.70609   0.00000
           Y           -0.70609   0.70812   0.00000
           Z            0.00000   0.00000   1.00000
 This molecule is an oblate symmetric top.
 Rotational symmetry number  3.
 Rotational temperatures (Kelvin)     14.67242    14.67242     9.24357
 Rotational constants (GHZ):         305.72393   305.72393   192.60506
 Zero-point vibrational energy      97154.4 (Joules/Mol)
                                   23.22045 (Kcal/Mol)
 Vibrational temperatures:   1739.68  2661.02  2661.02  5308.50  5499.86
          (Kelvin)           5499.86

 Zero-point correction=                           0.037004 (Hartree/Particle)
 Thermal correction to Energy=                    0.039855
 Thermal correction to Enthalpy=                  0.040799
 Thermal correction to Gibbs Free Energy=         0.019011
 Sum of electronic and zero-point Energies=            -56.147352
 Sum of electronic and thermal Energies=               -56.144501
 Sum of electronic and thermal Enthalpies=             -56.143557
 Sum of electronic and thermal Free Energies=          -56.165345

                     E (Thermal)             CV                S
                      KCal/Mol        Cal/Mol-Kelvin    Cal/Mol-Kelvin
 Total                   25.009              6.203             45.857
 Electronic               0.000              0.000              0.000
 Translational            0.889              2.981             34.441
 Rotational               0.889              2.981             11.371
 Vibrational             23.232              0.241              0.045

 Optimization completed.
    -- Stationary point found.
 Normal termination of Gaussian 09 at Fri Sep  2 15:10:12 2016.
