 Gaussian 09, Revision D.01,
 Gaussian 09:  ES64L-G09RevD.01 24-Apr-2013

 -----------------------------------
 #opt mp2(full)/6-311+g** geom=check
 -----------------------------------

 -----
 title
 -----
 Structure from the checkpoint file:  "benzene-mp2-2.chk"
 Charge =  0 Multiplicity = 1

 SCF Done:  E(RHF) =  -461.507164419     A.U. after   13 cycles
 E2 =    -0.1896369398D+01 EUMP2 =    -0.46340353381737D+03

 The electronic state is 1-A1.
 Alpha  occ. eigenvalues --  -11.24596 -11.24547 -11.24533 -11.24427 -11.24412
 Alpha  occ. eigenvalues --  -11.24360 -11.23273 -11.23224 -11.23093 -11.22954
 Alpha  occ. eigenvalues --  -11.22941 -11.22492  -1.15589  -1.14031  -1.02049
 Alpha  occ. eigenvalues --   -1.02022  -1.00606  -1.00545  -0.82931  -0.82925
 Alpha  occ. eigenvalues --   -0.81545  -0.81523  -0.71426  -0.70056  -0.64947
 Alpha  occ. eigenvalues --   -0.63675  -0.62410  -0.60990  -0.59386  -0.59360
 Alpha  occ. eigenvalues --   -0.58284  -0.58015  -0.50974  -0.50086  -0.50064
 Alpha  occ. eigenvalues --   -0.49151  -0.48684  -0.47730  -0.34556  -0.34355
 Alpha  occ. eigenvalues --   -0.32839  -0.32372
 Alpha virt. eigenvalues --    0.06313   0.07154   0.07572   0.07774   0.08903
 Alpha virt. eigenvalues --    0.08996   0.09301   0.09908   0.09990   0.10249
 Alpha virt. eigenvalues --    0.11374   0.11651   0.12118   0.12455   0.12569

 Mulliken charges:
               1
     1  C    0.726275
     2  C   -0.330749
     3  C   -0.299530
     4  C   -0.177240
     5  C   -0.299530
     6  C   -0.330749
     7  H    0.147789
     8  H    0.132766
     9  H    0.134110
    10  H    0.133165
    11  H    0.134110
    12  H    0.132766
    13  C   -0.201415
    14  C   -0.134401
    15  C   -0.134401
    16  C   -0.201415
    17  C   -0.134401
    18  C   -0.134401
    19  H    0.140899
    20  H    0.138863
    21  H    0.138863
    22  H    0.140899
    23  H    0.138863
    24  H    0.138863
 Sum of Mulliken charges =   0.00000

 Dipole moment (field-independent basis, Debye):
    X=              0.0000    Y=              0.0000    Z=             -0.5667  Tot=              0.5667
 Quadrupole moment (field-independent basis, Debye-Ang):
   XX=            -72.9827   YY=            -64.2259   ZZ=            -74.5073
   XY=              0.0000   XZ=              0.0000   YZ=              0.0000

 Optimization completed.
    -- Stationary point found.

                         Standard orientation:
 ---------------------------------------------------------------------
 Center     Atomic      Atomic             Coordinates (Angstroms)
 Number     Number       Type             X           Y           Z
 ---------------------------------------------------------------------
      1          6           0        0.000000    0.000000    0.995300
      2          6           0        0.000000    1.210287    1.696489
      3          6           0        0.000000    1.211881    3.095699
      4          6           0        0.000000    0.000000    3.795325
      5          6           0        0.000000   -1.211881    3.095699
      6          6           0        0.000000   -1.210287    1.696489
      7          1           0        0.000000    0.000000   -0.087588
      8          1           0        0.000000    2.149803    1.150066
      9          1           0        0.000000    2.152602    3.639473
     10          1           0        0.000000    0.000000    4.881852
     11          1           0        0.000000   -2.152602    3.639473
     12          1           0        0.000000   -2.149803    1.150066
     13          6           0        1.399785    0.000000   -2.395744
     14          6           0        0.699843   -1.211885   -2.396279
     15          6           0       -0.699843   -1.211885   -2.396279
     16          6           0       -1.399785    0.000000   -2.395744
     17          6           0       -0.699843    1.211885   -2.396279
     18          6           0        0.699843    1.211885   -2.396279
     19          1           0        2.486157    0.000000   -2.389871
     20          1           0        1.243095   -2.152884   -2.395997
     21          1           0       -1.243095   -2.152884   -2.395997
     22          1           0       -2.486157    0.000000   -2.389871
     23          1           0       -1.243095    2.152884   -2.395997
     24          1           0        1.243095    2.152884   -2.395997
 ---------------------------------------------------------------------

 Normal termination of Gaussian 09 at Mon Oct 10 17:27:09 2016.
